# LAMMPS data file written by Ovito Basic 3.0.0-dev687
587 atoms
1640 bonds
4 atom types
1764 bond types
-0.9999997689 27.4999997689 xlo xhi
-0.1339697689 20.9185797689 ylo yhi
-1.0 1.0 zlo zhi

Masses

1 1.0
2 1.0
3 1.0
4 1.0

Atoms  # molecular

1 1 1 0.5 0.86603 0.0
2 1 1 1.5 0.86603 0.0
3 1 1 2.5 0.86603 0.0
4 1 1 3.5 0.86603 0.0
5 1 1 4.5 0.86603 0.0
6 1 1 5.5 0.86603 0.0
7 1 1 6.5 0.86603 0.0
8 1 1 7.5 0.86603 0.0
9 1 1 8.5 0.86603 0.0
10 1 1 9.5 0.86603 0.0
11 1 1 10.5 0.86603 0.0
12 1 1 11.5 0.86603 0.0
13 1 1 12.5 0.86603 0.0
14 1 1 13.5 0.86603 0.0
15 1 1 14.5 0.86603 0.0
16 1 1 15.5 0.86603 0.0
17 1 1 16.5 0.86603 0.0
18 1 1 17.5 0.86603 0.0
19 1 1 18.5 0.86603 0.0
20 1 1 19.5 0.86603 0.0
21 1 3 20.5 0.86603 0.0
22 1 3 21.5 0.86603 0.0
23 1 3 22.5 0.86603 0.0
24 1 3 23.5 0.86603 0.0
25 1 3 24.5 0.86603 0.0
26 1 3 25.5 0.86603 0.0
27 1 1 26.5 0.86603 0.0
28 1 1 0.0 1.73205 0.0
29 1 1 0.5 2.59808 0.0
30 1 1 1.0 1.73205 0.0
31 1 1 1.5 2.59808 0.0
32 1 1 2.0 1.73205 0.0
33 1 1 2.5 2.59808 0.0
34 1 1 3.0 1.73205 0.0
35 1 1 3.5 2.59808 0.0
36 1 1 4.0 1.73205 0.0
37 1 1 4.5 2.59808 0.0
38 1 1 5.0 1.73205 0.0
39 1 1 5.5 2.59808 0.0
40 1 1 6.0 1.73205 0.0
41 1 1 6.5 2.59808 0.0
42 1 1 7.0 1.73205 0.0
43 1 1 7.5 2.59808 0.0
44 1 1 8.0 1.73205 0.0
45 1 1 8.5 2.59808 0.0
46 1 1 9.0 1.73205 0.0
47 1 1 9.5 2.59808 0.0
48 1 1 10.0 1.73205 0.0
49 1 1 10.5 2.59808 0.0
50 1 1 11.0 1.73205 0.0
51 1 1 11.5 2.59808 0.0
52 1 1 12.0 1.73205 0.0
53 1 1 12.5 2.59808 0.0
54 1 1 13.0 1.73205 0.0
55 1 1 13.5 2.59808 0.0
56 1 1 14.0 1.73205 0.0
57 1 1 14.5 2.59808 0.0
58 1 1 15.0 1.73205 0.0
59 1 1 15.5 2.59808 0.0
60 1 1 16.0 1.73205 0.0
61 1 1 16.5 2.59808 0.0
62 1 1 17.0 1.73205 0.0
63 1 1 17.5 2.59808 0.0
64 1 1 18.0 1.73205 0.0
65 1 1 18.5 2.59808 0.0
66 1 1 19.0 1.73205 0.0
67 1 1 19.5 2.59808 0.0
68 1 1 20.0 1.73205 0.0
69 1 1 20.5 2.59808 0.0
70 1 1 21.0 1.73205 0.0
71 1 1 21.5 2.59808 0.0
72 1 1 22.0 1.73205 0.0
73 1 1 22.5 2.59808 0.0
74 1 1 23.0 1.73205 0.0
75 1 1 23.5 2.59808 0.0
76 1 1 24.0 1.73205 0.0
77 1 1 24.5 2.59808 0.0
78 1 1 25.0 1.73205 0.0
79 1 1 25.5 2.59808 0.0
80 1 1 26.0 1.73205 0.0
81 1 1 26.5 2.59808 0.0
82 1 1 0.0 3.4641 0.0
83 1 1 0.5 4.33013 0.0
84 1 1 1.0 3.4641 0.0
85 1 1 1.5 4.33013 0.0
86 1 1 2.0 3.4641 0.0
87 1 1 2.5 4.33013 0.0
88 1 1 3.0 3.4641 0.0
89 1 1 3.5 4.33013 0.0
90 1 1 4.0 3.4641 0.0
91 1 1 4.5 4.33013 0.0
92 1 1 5.0 3.4641 0.0
93 1 1 5.5 4.33013 0.0
94 1 1 6.0 3.4641 0.0
95 1 1 6.5 4.33013 0.0
96 1 1 7.0 3.4641 0.0
97 1 1 7.5 4.33013 0.0
98 1 1 8.0 3.4641 0.0
99 1 1 8.5 4.33013 0.0
100 1 1 9.0 3.4641 0.0
101 1 1 9.5 4.33013 0.0
102 1 1 10.0 3.4641 0.0
103 1 1 10.5 4.33013 0.0
104 1 1 11.0 3.4641 0.0
105 1 1 11.5 4.33013 0.0
106 1 1 12.0 3.4641 0.0
107 1 1 12.5 4.33013 0.0
108 1 1 13.0 3.4641 0.0
109 1 1 13.5 4.33013 0.0
110 1 1 14.0 3.4641 0.0
111 1 1 14.5 4.33013 0.0
112 1 1 15.0 3.4641 0.0
113 1 1 15.5 4.33013 0.0
114 1 1 16.0 3.4641 0.0
115 1 1 16.5 4.33013 0.0
116 1 1 17.0 3.4641 0.0
117 1 1 17.5 4.33013 0.0
118 1 1 18.0 3.4641 0.0
119 1 1 18.5 4.33013 0.0
120 1 1 19.0 3.4641 0.0
121 1 1 19.5 4.33013 0.0
122 1 1 20.0 3.4641 0.0
123 1 1 20.5 4.33013 0.0
124 1 1 21.0 3.4641 0.0
125 1 1 21.5 4.33013 0.0
126 1 1 22.0 3.4641 0.0
127 1 1 22.5 4.33013 0.0
128 1 1 23.0 3.4641 0.0
129 1 1 23.5 4.33013 0.0
130 1 1 24.0 3.4641 0.0
131 1 1 24.5 4.33013 0.0
132 1 1 25.0 3.4641 0.0
133 1 1 25.5 4.33013 0.0
134 1 1 26.0 3.4641 0.0
135 1 1 26.5 4.33013 0.0
136 1 1 0.0 5.19615 0.0
137 1 1 0.5 6.06218 0.0
138 1 1 1.0 5.19615 0.0
139 1 1 1.5 6.06218 0.0
140 1 1 2.0 5.19615 0.0
141 1 1 2.5 6.06218 0.0
142 1 1 3.0 5.19615 0.0
143 1 1 3.5 6.06218 0.0
144 1 1 4.0 5.19615 0.0
145 1 1 4.5 6.06218 0.0
146 1 1 5.0 5.19615 0.0
147 1 1 5.5 6.06218 0.0
148 1 1 6.0 5.19615 0.0
149 1 1 6.5 6.06218 0.0
150 1 1 7.0 5.19615 0.0
151 1 1 7.5 6.06218 0.0
152 1 1 8.0 5.19615 0.0
153 1 1 8.5 6.06218 0.0
154 1 1 9.0 5.19615 0.0
155 1 1 9.5 6.06218 0.0
156 1 1 10.0 5.19615 0.0
157 1 1 10.5 6.06218 0.0
158 1 1 11.0 5.19615 0.0
159 1 1 11.5 6.06218 0.0
160 1 1 12.0 5.19615 0.0
161 1 1 12.5 6.06218 0.0
162 1 1 13.0 5.19615 0.0
163 1 1 13.5 6.06218 0.0
164 1 1 14.0 5.19615 0.0
165 1 1 14.5 6.06218 0.0
166 1 1 15.0 5.19615 0.0
167 1 1 15.5 6.06218 0.0
168 1 1 16.0 5.19615 0.0
169 1 1 16.5 6.06218 0.0
170 1 1 17.0 5.19615 0.0
171 1 1 17.5 6.06218 0.0
172 1 1 18.0 5.19615 0.0
173 1 1 18.5 6.06218 0.0
174 1 1 19.0 5.19615 0.0
175 1 1 19.5 6.06218 0.0
176 1 1 20.0 5.19615 0.0
177 1 1 20.5 6.06218 0.0
178 1 1 21.0 5.19615 0.0
179 1 1 21.5 6.06218 0.0
180 1 1 22.0 5.19615 0.0
181 1 1 22.5 6.06218 0.0
182 1 1 23.0 5.19615 0.0
183 1 1 23.5 6.06218 0.0
184 1 1 24.0 5.19615 0.0
185 1 1 24.5 6.06218 0.0
186 1 1 25.0 5.19615 0.0
187 1 1 25.5 6.06218 0.0
188 1 1 26.0 5.19615 0.0
189 1 1 26.5 6.06218 0.0
190 1 1 0.0 6.9282 0.0
191 1 1 0.5 7.79423 0.0
192 1 1 1.0 6.9282 0.0
193 1 1 1.5 7.79423 0.0
194 1 1 2.0 6.9282 0.0
195 1 1 2.5 7.79423 0.0
196 1 1 3.0 6.9282 0.0
197 1 1 3.5 7.79423 0.0
198 1 1 4.0 6.9282 0.0
199 1 1 4.5 7.79423 0.0
200 1 1 5.0 6.9282 0.0
201 1 1 5.5 7.79423 0.0
202 1 1 6.0 6.9282 0.0
203 1 1 6.5 7.79423 0.0
204 1 1 7.0 6.9282 0.0
205 1 1 7.5 7.79423 0.0
206 1 1 8.0 6.9282 0.0
207 1 1 8.5 7.79423 0.0
208 1 1 9.0 6.9282 0.0
209 1 1 9.5 7.79423 0.0
210 1 1 10.0 6.9282 0.0
211 1 1 10.5 7.79423 0.0
212 1 1 11.0 6.9282 0.0
213 1 1 11.5 7.79423 0.0
214 1 1 12.0 6.9282 0.0
215 1 1 12.5 7.79423 0.0
216 1 1 13.0 6.9282 0.0
217 1 1 13.5 7.79423 0.0
218 1 1 14.0 6.9282 0.0
219 1 1 14.5 7.79423 0.0
220 1 1 15.0 6.9282 0.0
221 1 1 15.5 7.79423 0.0
222 1 1 16.0 6.9282 0.0
223 1 1 16.5 7.79423 0.0
224 1 1 17.0 6.9282 0.0
225 1 1 17.5 7.79423 0.0
226 1 1 18.0 6.9282 0.0
227 1 1 18.5 7.79423 0.0
228 1 1 19.0 6.9282 0.0
229 1 1 19.5 7.79423 0.0
230 1 1 20.0 6.9282 0.0
231 1 1 20.5 7.79423 0.0
232 1 1 21.0 6.9282 0.0
233 1 1 21.5 7.79423 0.0
234 1 1 22.0 6.9282 0.0
235 1 1 22.5 7.79423 0.0
236 1 1 23.0 6.9282 0.0
237 1 1 23.5 7.79423 0.0
238 1 1 24.0 6.9282 0.0
239 1 1 24.5 7.79423 0.0
240 1 1 25.0 6.9282 0.0
241 1 1 25.5 7.79423 0.0
242 1 1 26.0 6.9282 0.0
243 1 1 26.5 7.79423 0.0
244 1 1 0.0 8.66025 0.0
246 1 4 1.0 8.66025 0.0
248 1 4 2.0 8.66025 0.0
250 1 4 3.0 8.66025 0.0
252 1 1 4.0 8.66025 0.0
254 1 1 5.0 8.66025 0.0
256 1 1 6.0 8.66025 0.0
258 1 1 7.0 8.66025 0.0
260 1 1 8.0 8.66025 0.0
262 1 1 9.0 8.66025 0.0
264 1 1 10.0 8.66025 0.0
266 1 1 11.0 8.66025 0.0
267 1 1 11.5 9.52628 0.0
268 1 1 12.0 8.66025 0.0
269 1 1 12.5 9.52628 0.0
270 1 1 13.0 8.66025 0.0
271 1 1 13.5 9.52628 0.0
272 1 1 14.0 8.66025 0.0
273 1 1 14.5 9.52628 0.0
274 1 1 15.0 8.66025 0.0
275 1 1 15.5 9.52628 0.0
276 1 1 16.0 8.66025 0.0
277 1 1 16.5 9.52628 0.0
278 1 1 17.0 8.66025 0.0
279 1 1 17.5 9.52628 0.0
280 1 1 18.0 8.66025 0.0
281 1 1 18.5 9.52628 0.0
282 1 1 19.0 8.66025 0.0
283 1 1 19.5 9.52628 0.0
284 1 1 20.0 8.66025 0.0
285 1 1 20.5 9.52628 0.0
286 1 1 21.0 8.66025 0.0
287 1 1 21.5 9.52628 0.0
288 1 1 22.0 8.66025 0.0
289 1 1 22.5 9.52628 0.0
290 1 1 23.0 8.66025 0.0
291 1 1 23.5 9.52628 0.0
292 1 1 24.0 8.66025 0.0
293 1 1 24.5 9.52628 0.0
294 1 1 25.0 8.66025 0.0
295 1 1 25.5 9.52628 0.0
296 1 1 26.0 8.66025 0.0
297 1 1 26.5 9.52628 0.0
321 1 1 11.5 11.25833 0.0
322 1 1 12.0 10.3923 0.0
323 1 1 12.5 11.25833 0.0
324 1 1 13.0 10.3923 0.0
325 1 1 13.5 11.25833 0.0
326 1 1 14.0 10.3923 0.0
327 1 1 14.5 11.25833 0.0
328 1 1 15.0 10.3923 0.0
329 1 1 15.5 11.25833 0.0
330 1 1 16.0 10.3923 0.0
331 1 1 16.5 11.25833 0.0
332 1 2 17.0 10.3923 0.0
333 1 1 17.5 11.25833 0.0
334 1 1 18.0 10.3923 0.0
335 1 1 18.5 11.25833 0.0
336 1 1 19.0 10.3923 0.0
337 1 1 19.5 11.25833 0.0
338 1 1 20.0 10.3923 0.0
339 1 1 20.5 11.25833 0.0
340 1 1 21.0 10.3923 0.0
341 1 1 21.5 11.25833 0.0
342 1 1 22.0 10.3923 0.0
343 1 1 22.5 11.25833 0.0
344 1 1 23.0 10.3923 0.0
345 1 1 23.5 11.25833 0.0
346 1 1 24.0 10.3923 0.0
347 1 1 24.5 11.25833 0.0
348 1 1 25.0 10.3923 0.0
349 1 1 25.5 11.25833 0.0
350 1 1 26.0 10.3923 0.0
351 1 1 26.5 11.25833 0.0
352 1 1 0.0 12.12436 0.0
353 1 1 0.5 12.99038 0.0
354 1 4 1.0 12.12436 0.0
355 1 1 1.5 12.99038 0.0
356 1 4 2.0 12.12436 0.0
357 1 1 2.5 12.99038 0.0
358 1 4 3.0 12.12436 0.0
359 1 1 3.5 12.99038 0.0
360 1 1 4.0 12.12436 0.0
361 1 1 4.5 12.99038 0.0
362 1 1 5.0 12.12436 0.0
363 1 1 5.5 12.99038 0.0
364 1 1 6.0 12.12436 0.0
365 1 1 6.5 12.99038 0.0
366 1 1 7.0 12.12436 0.0
367 1 1 7.5 12.99038 0.0
368 1 1 8.0 12.12436 0.0
369 1 1 8.5 12.99038 0.0
370 1 1 9.0 12.12436 0.0
371 1 1 9.5 12.99038 0.0
372 1 1 10.0 12.12436 0.0
373 1 1 10.5 12.99038 0.0
374 1 1 11.0 12.12436 0.0
375 1 1 11.5 12.99038 0.0
376 1 1 12.0 12.12436 0.0
377 1 1 12.5 12.99038 0.0
378 1 1 13.0 12.12436 0.0
379 1 1 13.5 12.99038 0.0
380 1 1 14.0 12.12436 0.0
381 1 1 14.5 12.99038 0.0
382 1 1 15.0 12.12436 0.0
383 1 1 15.5 12.99038 0.0
384 1 1 16.0 12.12436 0.0
385 1 1 16.5 12.99038 0.0
386 1 1 17.0 12.12436 0.0
387 1 1 17.5 12.99038 0.0
388 1 1 18.0 12.12436 0.0
389 1 1 18.5 12.99038 0.0
390 1 1 19.0 12.12436 0.0
391 1 1 19.5 12.99038 0.0
392 1 1 20.0 12.12436 0.0
393 1 1 20.5 12.99038 0.0
394 1 1 21.0 12.12436 0.0
395 1 1 21.5 12.99038 0.0
396 1 1 22.0 12.12436 0.0
397 1 1 22.5 12.99038 0.0
398 1 1 23.0 12.12436 0.0
399 1 1 23.5 12.99038 0.0
400 1 1 24.0 12.12436 0.0
401 1 1 24.5 12.99038 0.0
402 1 1 25.0 12.12436 0.0
403 1 1 25.5 12.99038 0.0
404 1 1 26.0 12.12436 0.0
405 1 1 26.5 12.99038 0.0
406 1 1 0.0 13.85641 0.0
407 1 1 0.5 14.72243 0.0
408 1 1 1.0 13.85641 0.0
409 1 1 1.5 14.72243 0.0
410 1 1 2.0 13.85641 0.0
411 1 1 2.5 14.72243 0.0
412 1 1 3.0 13.85641 0.0
413 1 1 3.5 14.72243 0.0
414 1 1 4.0 13.85641 0.0
415 1 1 4.5 14.72243 0.0
416 1 1 5.0 13.85641 0.0
417 1 1 5.5 14.72243 0.0
418 1 1 6.0 13.85641 0.0
419 1 1 6.5 14.72243 0.0
420 1 1 7.0 13.85641 0.0
421 1 1 7.5 14.72243 0.0
422 1 1 8.0 13.85641 0.0
423 1 1 8.5 14.72243 0.0
424 1 1 9.0 13.85641 0.0
425 1 1 9.5 14.72243 0.0
426 1 1 10.0 13.85641 0.0
427 1 1 10.5 14.72243 0.0
428 1 1 11.0 13.85641 0.0
429 1 1 11.5 14.72243 0.0
430 1 1 12.0 13.85641 0.0
431 1 1 12.5 14.72243 0.0
432 1 1 13.0 13.85641 0.0
433 1 1 13.5 14.72243 0.0
434 1 1 14.0 13.85641 0.0
435 1 1 14.5 14.72243 0.0
436 1 1 15.0 13.85641 0.0
437 1 1 15.5 14.72243 0.0
438 1 1 16.0 13.85641 0.0
439 1 1 16.5 14.72243 0.0
440 1 1 17.0 13.85641 0.0
441 1 1 17.5 14.72243 0.0
442 1 1 18.0 13.85641 0.0
443 1 1 18.5 14.72243 0.0
444 1 1 19.0 13.85641 0.0
445 1 1 19.5 14.72243 0.0
446 1 1 20.0 13.85641 0.0
447 1 1 20.5 14.72243 0.0
448 1 1 21.0 13.85641 0.0
449 1 1 21.5 14.72243 0.0
450 1 1 22.0 13.85641 0.0
451 1 1 22.5 14.72243 0.0
452 1 1 23.0 13.85641 0.0
453 1 1 23.5 14.72243 0.0
454 1 1 24.0 13.85641 0.0
455 1 1 24.5 14.72243 0.0
456 1 1 25.0 13.85641 0.0
457 1 1 25.5 14.72243 0.0
458 1 1 26.0 13.85641 0.0
459 1 1 26.5 14.72243 0.0
460 1 1 0.0 15.58846 0.0
461 1 1 0.5 16.45448 0.0
462 1 1 1.0 15.58846 0.0
463 1 1 1.5 16.45448 0.0
464 1 1 2.0 15.58846 0.0
465 1 1 2.5 16.45448 0.0
466 1 1 3.0 15.58846 0.0
467 1 1 3.5 16.45448 0.0
468 1 1 4.0 15.58846 0.0
469 1 1 4.5 16.45448 0.0
470 1 1 5.0 15.58846 0.0
471 1 1 5.5 16.45448 0.0
472 1 1 6.0 15.58846 0.0
473 1 1 6.5 16.45448 0.0
474 1 1 7.0 15.58846 0.0
475 1 1 7.5 16.45448 0.0
476 1 1 8.0 15.58846 0.0
477 1 1 8.5 16.45448 0.0
478 1 1 9.0 15.58846 0.0
479 1 1 9.5 16.45448 0.0
480 1 1 10.0 15.58846 0.0
481 1 1 10.5 16.45448 0.0
482 1 1 11.0 15.58846 0.0
483 1 1 11.5 16.45448 0.0
484 1 1 12.0 15.58846 0.0
485 1 1 12.5 16.45448 0.0
486 1 1 13.0 15.58846 0.0
487 1 1 13.5 16.45448 0.0
488 1 1 14.0 15.58846 0.0
489 1 1 14.5 16.45448 0.0
490 1 1 15.0 15.58846 0.0
491 1 1 15.5 16.45448 0.0
492 1 1 16.0 15.58846 0.0
493 1 1 16.5 16.45448 0.0
494 1 1 17.0 15.58846 0.0
495 1 1 17.5 16.45448 0.0
496 1 1 18.0 15.58846 0.0
497 1 1 18.5 16.45448 0.0
498 1 1 19.0 15.58846 0.0
499 1 1 19.5 16.45448 0.0
500 1 1 20.0 15.58846 0.0
501 1 1 20.5 16.45448 0.0
502 1 1 21.0 15.58846 0.0
503 1 1 21.5 16.45448 0.0
504 1 1 22.0 15.58846 0.0
505 1 1 22.5 16.45448 0.0
506 1 1 23.0 15.58846 0.0
507 1 1 23.5 16.45448 0.0
508 1 1 24.0 15.58846 0.0
509 1 1 24.5 16.45448 0.0
510 1 1 25.0 15.58846 0.0
511 1 1 25.5 16.45448 0.0
512 1 1 26.0 15.58846 0.0
513 1 1 26.5 16.45448 0.0
514 1 1 0.0 17.32051 0.0
515 1 1 0.5 18.18653 0.0
516 1 1 1.0 17.32051 0.0
517 1 1 1.5 18.18653 0.0
518 1 1 2.0 17.32051 0.0
519 1 1 2.5 18.18653 0.0
520 1 1 3.0 17.32051 0.0
521 1 1 3.5 18.18653 0.0
522 1 1 4.0 17.32051 0.0
523 1 1 4.5 18.18653 0.0
524 1 1 5.0 17.32051 0.0
525 1 1 5.5 18.18653 0.0
526 1 1 6.0 17.32051 0.0
527 1 1 6.5 18.18653 0.0
528 1 1 7.0 17.32051 0.0
529 1 1 7.5 18.18653 0.0
530 1 1 8.0 17.32051 0.0
531 1 1 8.5 18.18653 0.0
532 1 1 9.0 17.32051 0.0
533 1 1 9.5 18.18653 0.0
534 1 1 10.0 17.32051 0.0
535 1 1 10.5 18.18653 0.0
536 1 1 11.0 17.32051 0.0
537 1 1 11.5 18.18653 0.0
538 1 1 12.0 17.32051 0.0
539 1 1 12.5 18.18653 0.0
540 1 1 13.0 17.32051 0.0
541 1 1 13.5 18.18653 0.0
542 1 1 14.0 17.32051 0.0
543 1 1 14.5 18.18653 0.0
544 1 1 15.0 17.32051 0.0
545 1 1 15.5 18.18653 0.0
546 1 1 16.0 17.32051 0.0
547 1 1 16.5 18.18653 0.0
548 1 1 17.0 17.32051 0.0
549 1 1 17.5 18.18653 0.0
550 1 1 18.0 17.32051 0.0
551 1 1 18.5 18.18653 0.0
552 1 1 19.0 17.32051 0.0
553 1 1 19.5 18.18653 0.0
554 1 1 20.0 17.32051 0.0
555 1 1 20.5 18.18653 0.0
556 1 1 21.0 17.32051 0.0
557 1 1 21.5 18.18653 0.0
558 1 1 22.0 17.32051 0.0
559 1 1 22.5 18.18653 0.0
560 1 1 23.0 17.32051 0.0
561 1 1 23.5 18.18653 0.0
562 1 1 24.0 17.32051 0.0
563 1 1 24.5 18.18653 0.0
564 1 1 25.0 17.32051 0.0
565 1 1 25.5 18.18653 0.0
566 1 1 26.0 17.32051 0.0
567 1 1 26.5 18.18653 0.0
568 1 1 0.0 19.05256 0.0
569 1 1 0.5 19.91858 0.0
570 1 1 1.0 19.05256 0.0
571 1 1 1.5 19.91858 0.0
572 1 1 2.0 19.05256 0.0
573 1 1 2.5 19.91858 0.0
574 1 1 3.0 19.05256 0.0
575 1 1 3.5 19.91858 0.0
576 1 1 4.0 19.05256 0.0
577 1 1 4.5 19.91858 0.0
578 1 1 5.0 19.05256 0.0
579 1 1 5.5 19.91858 0.0
580 1 1 6.0 19.05256 0.0
581 1 1 6.5 19.91858 0.0
582 1 1 7.0 19.05256 0.0
583 1 1 7.5 19.91858 0.0
584 1 1 8.0 19.05256 0.0
585 1 1 8.5 19.91858 0.0
586 1 1 9.0 19.05256 0.0
587 1 1 9.5 19.91858 0.0
588 1 1 10.0 19.05256 0.0
589 1 1 10.5 19.91858 0.0
590 1 1 11.0 19.05256 0.0
591 1 1 11.5 19.91858 0.0
592 1 1 12.0 19.05256 0.0
593 1 1 12.5 19.91858 0.0
594 1 1 13.0 19.05256 0.0
595 1 1 13.5 19.91858 0.0
596 1 1 14.0 19.05256 0.0
597 1 1 14.5 19.91858 0.0
598 1 1 15.0 19.05256 0.0
599 1 1 15.5 19.91858 0.0
600 1 1 16.0 19.05256 0.0
601 1 1 16.5 19.91858 0.0
602 1 1 17.0 19.05256 0.0
603 1 1 17.5 19.91858 0.0
604 1 1 18.0 19.05256 0.0
605 1 1 18.5 19.91858 0.0
606 1 1 19.0 19.05256 0.0
607 1 1 19.5 19.91858 0.0
608 1 1 20.0 19.05256 0.0
609 1 3 20.5 19.91858 0.0
610 1 1 21.0 19.05256 0.0
611 1 3 21.5 19.91858 0.0
612 1 1 22.0 19.05256 0.0
613 1 3 22.5 19.91858 0.0
614 1 1 23.0 19.05256 0.0
615 1 3 23.5 19.91858 0.0
616 1 1 24.0 19.05256 0.0
617 1 3 24.5 19.91858 0.0
618 1 1 25.0 19.05256 0.0
619 1 3 25.5 19.91858 0.0
620 1 1 26.0 19.05256 0.0
621 1 1 26.5 19.91858 0.0

Bonds

1 1 125 178
2 2 123 178
3 3 125 127
4 4 125 126
5 5 508 510
6 6 509 511
7 7 122 123
8 8 508 509
9 9 507 562
10 10 509 562
11 11 131 133
12 12 131 184
13 13 131 132
14 14 131 186
15 15 129 130
16 16 129 131
17 17 507 508
18 18 130 132
19 19 130 131
20 20 129 184
21 21 507 509
22 22 3 4
23 23 3 34
24 24 120 121
25 25 117 119
26 26 4 36
27 27 119 121
28 28 2 32
29 29 2 3
30 30 112 113
31 31 3 32
32 32 119 174
33 33 117 170
34 34 111 112
35 35 115 168
36 36 117 172
37 37 1 30
38 38 116 117
39 39 116 118
40 40 115 116
41 41 1 28
42 42 110 111
43 43 1 2
44 44 111 166
45 45 118 120
46 46 111 113
47 47 2 30
48 48 119 172
49 49 110 112
50 50 109 111
51 51 118 119
52 52 119 120
53 53 112 114
54 54 114 116
55 55 117 118
56 56 114 115
57 57 115 170
58 58 111 164
59 59 113 168
60 60 113 115
61 61 113 166
62 62 115 117
63 63 113 114
64 64 548 549
65 65 543 545
66 66 51 53
67 67 547 549
68 68 542 543
69 69 548 550
70 70 546 548
71 71 50 51
72 72 547 548
73 73 51 52
74 74 54 55
75 75 541 543
76 76 427 428
77 77 545 547
78 78 24 74
79 79 427 429
80 80 22 70
81 81 431 432
82 82 24 25
83 83 426 427
84 84 22 72
85 85 429 431
86 86 541 596
87 87 25 78
88 88 428 430
89 89 542 544
90 90 427 480
91 91 25 76
92 92 431 484
93 93 428 429
94 94 547 602
95 95 427 482
96 96 544 546
97 97 429 484
98 98 543 544
99 99 430 432
100 100 545 546
101 101 430 431
102 102 53 55
103 103 426 428
104 104 53 54
105 105 425 427
106 106 545 598
107 107 431 433
108 108 545 600
109 109 52 53
110 110 53 106
111 111 55 108
112 112 547 600
113 113 22 23
114 114 543 598
115 115 544 545
116 116 543 596
117 117 23 74
118 118 546 547
119 119 24 76
120 120 549 602
121 121 51 104
122 122 23 72
123 123 53 108
124 124 54 56
125 125 23 24
126 126 52 54
127 127 429 430
128 128 51 106
129 129 429 482
130 130 280 282
131 131 487 540
132 132 271 324
133 133 540 542
134 134 283 284
135 135 281 336
136 136 484 486
137 137 282 284
138 138 270 271
139 139 537 590
140 140 283 338
141 141 281 283
142 142 283 285
143 143 479 481
144 144 282 283
145 145 481 482
146 146 536 538
147 147 281 334
148 148 280 281
149 149 540 541
150 150 279 334
151 151 281 282
152 152 482 483
153 153 283 336
154 154 481 534
155 155 539 541
156 156 277 332
157 157 278 279
158 158 275 277
159 159 535 588
160 160 277 279
161 161 480 481
162 162 538 539
163 163 278 280
164 164 479 532
165 165 277 278
166 166 486 487
167 167 276 277
168 168 479 534
169 169 275 276
170 170 279 280
171 171 483 484
172 172 277 330
173 173 485 540
174 174 279 332
175 175 271 272
176 176 270 272
177 177 484 485
178 178 539 540
179 179 275 328
180 180 485 486
181 181 535 537
182 182 275 330
183 183 483 485
184 184 274 275
185 185 481 483
186 186 276 278
187 187 432 434
188 188 279 281
189 189 433 486
190 190 479 480
191 191 432 433
192 192 541 594
193 193 431 486
194 194 485 538
195 195 480 482
196 196 483 538
197 197 538 540
198 198 539 594
199 199 482 484
200 200 541 542
201 201 433 434
202 202 269 271
203 203 486 488
204 204 269 324
205 205 481 536
206 206 536 537
207 207 132 134
208 208 271 326
209 209 132 133
210 210 487 489
211 211 273 328
212 212 273 326
213 213 537 539
214 214 537 592
215 215 271 273
216 216 274 276
217 217 535 536
218 218 272 274
219 219 483 536
220 220 535 590
221 221 273 275
222 222 539 592
223 223 133 188
224 224 273 274
225 225 537 538
226 226 272 273
227 227 485 487
228 228 354 355
229 229 232 234
230 230 455 508
231 231 618 620
232 232 336 337
233 233 445 500
234 234 231 233
235 235 353 354
236 236 615 616
237 237 337 390
238 238 219 272
239 239 447 448
240 240 336 338
241 241 231 284
242 242 353 408
243 243 451 504
244 244 352 353
245 245 229 230
246 246 353 355
247 247 229 284
248 248 448 449
249 249 616 618
250 250 353 406
251 251 120 122
252 252 334 336
253 253 357 359
254 254 447 502
255 255 347 349
256 256 341 396
257 257 228 230
258 258 447 500
259 259 619 621
260 260 230 232
261 261 368 370
262 262 349 404
263 263 229 231
264 264 449 502
265 265 228 229
266 266 349 402
267 267 449 450
268 268 361 363
269 269 347 400
270 270 227 229
271 271 360 362
272 272 343 396
273 273 231 232
274 274 450 451
275 275 348 350
276 276 229 282
277 277 349 351
278 278 230 231
279 279 451 452
280 280 362 363
281 281 349 350
282 282 361 414
283 283 347 402
284 284 218 219
285 285 446 447
286 286 368 369
287 287 227 280
288 288 337 339
289 289 359 414
290 290 227 228
291 291 346 347
292 292 447 449
293 293 351 404
294 294 226 228
295 295 449 504
296 296 360 361
297 297 348 349
298 298 227 282
299 299 350 351
300 300 231 286
301 301 222 223
302 302 337 338
303 303 450 452
304 304 335 336
305 305 362 364
306 306 451 453
307 307 345 400
308 308 361 362
309 309 449 451
310 310 616 617
311 311 361 416
312 312 346 348
313 313 224 226
314 314 448 450
315 315 367 420
316 316 225 278
317 317 345 346
318 318 446 448
319 319 366 368
320 320 347 348
321 321 455 457
322 322 222 224
323 323 352 354
324 324 619 620
325 325 219 220
326 326 343 398
327 327 452 453
328 328 365 367
329 329 223 276
330 330 338 340
331 331 453 506
332 332 363 416
333 333 341 394
334 334 225 227
335 335 455 456
336 336 367 368
337 337 224 225
338 338 367 422
339 339 223 224
340 340 343 345
341 341 367 369
342 342 344 345
343 343 221 276
344 344 354 356
345 345 363 364
346 346 363 365
347 347 225 280
348 348 342 344
349 349 359 360
350 350 223 278
351 351 335 388
352 352 358 360
353 353 225 226
354 354 340 341
355 355 345 398
356 356 219 274
357 357 445 447
358 358 618 619
359 359 358 359
360 360 343 344
361 361 344 346
362 362 221 274
363 363 335 337
364 364 221 223
365 365 335 390
366 366 221 222
367 367 453 508
368 368 223 225
369 369 340 342
370 370 226 227
371 371 341 342
372 372 617 618
373 373 339 341
374 374 620 621
375 375 341 343
376 376 452 454
377 377 364 366
378 378 345 347
379 379 218 220
380 380 365 418
381 381 454 456
382 382 339 340
383 383 451 506
384 384 359 361
385 385 217 272
386 386 339 394
387 387 454 455
388 388 365 366
389 389 617 619
390 390 363 418
391 391 337 392
392 392 366 367
393 393 220 222
394 394 334 335
395 395 453 454
396 396 342 343
397 397 359 412
398 398 453 455
399 399 365 420
400 400 220 221
401 401 339 392
402 402 219 221
403 403 338 339
404 404 364 365
405 405 121 174
406 406 121 122
407 407 506 507
408 408 192 193
409 409 188 189
410 410 199 201
411 411 126 128
412 412 200 202
413 413 199 254
414 414 199 252
415 415 200 201
416 416 195 197
417 417 186 188
418 418 355 356
419 419 197 252
420 420 197 250
421 421 195 248
422 422 126 127
423 423 196 198
424 424 197 199
425 425 197 198
426 426 195 250
427 427 191 192
428 428 187 189
429 429 198 199
430 430 196 197
431 431 198 200
432 432 191 246
433 433 191 244
434 434 187 240
435 435 194 195
436 436 194 196
437 437 193 248
438 438 193 194
439 439 195 196
440 440 199 200
441 441 355 408
442 442 187 188
443 443 187 242
444 444 191 193
445 445 186 187
446 446 190 191
447 447 189 242
448 448 193 246
449 449 193 195
450 450 192 194
451 451 190 192
452 452 4 5
453 453 148 150
454 454 443 444
455 455 18 62
456 456 149 202
457 457 443 496
458 458 442 444
459 459 147 148
460 460 443 445
461 461 20 66
462 462 20 68
463 463 17 60
464 464 147 200
465 465 19 64
466 466 20 21
467 467 19 20
468 468 147 202
469 469 18 19
470 470 5 38
471 471 17 62
472 472 21 68
473 473 19 66
474 474 21 70
475 475 5 36
476 476 6 7
477 477 16 17
478 478 17 18
479 479 16 58
480 480 18 64
481 481 21 22
482 482 12 13
483 483 14 56
484 484 153 154
485 485 14 15
486 486 4 34
487 487 12 52
488 488 155 210
489 489 7 8
490 490 155 208
491 491 13 54
492 492 15 58
493 493 153 206
494 494 14 54
495 495 157 210
496 496 13 52
497 497 154 155
498 498 6 38
499 499 155 157
500 500 11 48
501 501 155 156
502 502 15 16
503 503 153 208
504 504 13 14
505 505 149 150
506 506 15 56
507 507 152 153
508 508 6 40
509 509 156 157
510 510 5 6
511 511 154 156
512 512 11 50
513 513 156 158
514 514 11 12
515 516 10 11
516 517 12 50
517 518 151 206
518 519 16 60
519 520 152 154
520 521 151 153
521 522 151 204
522 523 443 498
523 524 9 46
524 525 149 204
525 526 9 10
526 527 149 151
527 528 7 42
528 529 150 152
529 530 10 46
530 531 151 152
531 532 8 44
532 533 150 151
533 534 10 48
534 535 153 155
535 536 9 44
536 537 8 9
537 538 7 40
538 539 148 149
539 540 444 445
540 541 8 42
541 542 441 442
542 543 414 416
543 544 414 415
544 545 441 443
545 546 440 441
546 547 441 494
547 548 413 468
548 549 415 468
549 550 413 415
550 551 413 414
551 552 403 405
552 553 411 466
553 554 415 470
554 555 413 466
555 556 415 416
556 557 440 442
557 558 403 404
558 559 441 496
559 560 411 413
560 561 412 414
561 562 439 494
562 563 411 412
563 564 442 443
564 565 412 413
565 566 415 417
566 567 403 458
567 568 407 460
568 569 409 410
569 570 409 411
570 571 407 409
571 572 408 409
572 573 409 464
573 574 409 462
574 575 407 462
575 576 406 408
576 577 410 412
577 578 408 410
578 579 410 411
579 580 403 456
580 581 405 458
581 582 406 407
582 583 404 405
583 584 407 408
584 585 411 464
585 586 402 403
586 587 48 50
587 588 49 102
588 589 48 49
589 590 49 50
590 591 46 47
591 592 47 49
592 593 47 100
593 594 49 104
594 595 47 102
595 596 50 52
596 597 49 51
597 598 47 48
598 599 46 48
599 600 59 61
600 601 59 114
601 602 371 424
602 603 444 446
603 604 372 374
604 605 373 426
605 606 371 426
606 607 369 424
607 608 56 57
608 609 57 112
609 610 369 371
610 611 375 376
611 612 445 446
612 613 374 375
613 614 373 374
614 615 445 498
615 616 370 372
616 617 57 58
617 618 58 60
618 619 373 375
619 620 58 59
620 621 369 422
621 622 59 60
622 623 374 376
623 624 371 372
624 625 372 373
625 626 57 59
626 627 371 373
627 628 373 428
628 629 375 430
629 630 375 428
630 631 57 110
631 632 369 370
632 633 59 112
633 634 370 371
634 635 56 58
635 636 375 377
636 637 78 80
637 638 79 80
638 639 184 186
639 640 84 86
640 641 521 523
641 642 83 85
642 643 183 185
643 644 521 576
644 645 80 81
645 646 185 238
646 647 82 83
647 648 184 185
648 649 381 436
649 650 84 85
650 651 183 184
651 652 386 388
652 653 79 132
653 654 177 232
654 655 514 516
655 656 78 79
656 657 173 228
657 658 519 572
658 659 185 187
659 660 82 84
660 661 523 576
661 662 388 390
662 663 70 72
663 664 183 238
664 665 389 442
665 666 87 140
666 667 185 186
667 668 89 142
668 669 123 124
669 670 177 178
670 671 515 516
671 672 386 387
672 673 89 90
673 674 176 178
674 675 523 524
675 676 382 383
676 677 79 134
677 678 175 228
678 679 387 442
679 680 71 73
680 681 182 183
681 682 516 517
682 683 389 390
683 684 86 88
684 685 182 184
685 686 388 389
686 687 77 130
687 688 181 236
688 689 510 511
689 690 387 388
690 691 123 176
691 692 181 182
692 693 377 432
693 694 83 84
694 695 123 125
695 696 183 236
696 697 385 438
697 698 75 130
698 699 185 240
699 700 516 518
700 701 389 391
701 702 90 91
702 703 172 173
703 704 511 564
704 705 387 389
705 706 87 89
706 707 389 444
707 708 88 89
708 709 175 177
709 710 509 510
710 711 380 382
711 712 89 91
712 713 377 430
713 714 69 71
714 715 174 175
715 716 511 566
716 717 385 387
717 718 77 79
718 719 385 386
719 720 89 144
720 721 519 574
721 722 385 440
722 723 88 90
723 724 517 519
724 725 387 440
725 726 87 142
726 727 519 520
727 728 390 391
728 729 72 74
729 730 173 175
730 731 518 520
731 732 383 436
732 733 74 76
733 734 514 515
734 735 73 74
735 736 174 176
736 737 520 521
737 738 383 438
738 739 73 128
739 740 521 522
740 741 75 76
741 742 173 226
742 743 517 570
743 744 381 383
744 745 74 75
745 746 509 564
746 747 383 384
747 748 75 128
748 749 515 517
749 750 382 384
750 751 76 77
751 752 518 519
752 753 381 382
753 754 83 138
754 755 173 174
755 756 379 434
756 757 81 134
757 758 517 518
758 759 378 379
759 760 513 566
760 761 384 386
761 762 90 92
762 763 77 78
763 764 383 385
764 765 73 126
765 766 522 524
766 767 379 381
767 768 79 81
768 769 172 174
769 770 519 521
770 771 377 378
771 772 69 122
772 773 177 179
773 774 511 513
774 775 85 138
775 776 377 379
776 777 76 78
777 778 510 512
778 779 378 380
779 780 72 73
780 781 179 234
781 782 517 572
782 783 381 434
783 784 86 87
784 785 179 181
785 786 384 385
786 787 73 75
787 788 181 234
788 789 77 132
789 790 177 230
790 791 522 523
791 792 75 77
792 793 85 86
793 794 179 232
794 795 511 512
795 796 85 87
796 797 180 182
797 798 521 574
798 799 376 377
799 800 85 140
800 801 179 180
801 802 87 88
802 803 178 180
803 804 70 71
804 805 176 177
805 806 379 380
806 807 71 124
807 808 175 176
808 809 515 568
809 810 380 381
810 811 71 126
811 812 181 183
812 813 520 522
813 814 71 72
814 815 178 179
815 816 512 513
816 817 83 136
817 818 180 181
818 819 376 378
819 820 91 146
820 821 175 230
821 822 379 432
822 823 515 570
823 825 250 252
824 829 416 418
825 831 248 250
826 832 417 419
827 838 236 238
828 839 233 235
829 843 237 239
830 844 237 238
831 845 234 235
832 850 246 248
833 852 233 288
834 853 235 236
835 854 235 288
836 855 233 234
837 856 417 470
838 857 232 233
839 858 234 236
840 859 416 417
841 860 239 240
842 861 417 418
843 862 241 296
844 863 241 294
845 864 239 241
846 865 244 246
847 866 240 242
848 867 241 243
849 868 241 242
850 869 239 294
851 870 236 237
852 871 233 286
853 872 243 296
854 873 240 241
855 874 242 243
856 875 235 290
857 876 237 290
858 877 235 237
859 878 238 240
860 879 239 292
861 880 238 239
862 881 237 292
863 882 122 124
864 883 139 141
865 884 491 544
866 885 463 465
867 886 495 548
868 887 137 192
869 888 497 550
870 889 496 498
871 890 139 140
872 891 491 493
873 892 138 139
874 893 487 542
875 894 494 496
876 895 136 138
877 896 461 516
878 897 496 497
879 898 503 558
880 899 137 138
881 900 488 490
882 901 490 492
883 902 487 488
884 903 495 497
885 904 497 499
886 905 495 550
887 906 503 556
888 907 502 503
889 908 492 494
890 909 493 546
891 910 494 495
892 911 492 493
893 912 503 505
894 913 493 548
895 914 505 506
896 915 143 196
897 916 488 489
898 917 495 496
899 918 493 494
900 919 145 146
901 920 504 506
902 921 145 200
903 922 498 499
904 923 147 149
905 924 143 198
906 925 504 505
907 926 108 110
908 927 462 463
909 928 497 552
910 929 144 145
911 930 498 500
912 931 145 147
913 932 145 198
914 933 491 546
915 934 143 145
916 935 505 507
917 936 501 503
918 937 139 192
919 938 497 498
920 939 146 147
921 940 464 465
922 941 490 491
923 942 144 146
924 943 500 502
925 944 146 148
926 945 505 558
927 946 463 464
928 947 500 501
929 948 139 194
930 949 489 544
931 950 140 141
932 951 463 518
933 952 491 492
934 953 142 143
935 954 464 466
936 955 499 501
937 956 109 162
938 957 143 144
939 958 489 491
940 959 142 144
941 960 141 196
942 961 501 554
943 962 141 194
944 963 499 500
945 964 499 554
946 965 108 109
947 966 502 504
948 967 463 516
949 968 489 490
950 969 137 139
951 970 493 495
952 971 140 142
953 972 489 542
954 973 135 188
955 974 499 552
956 975 136 137
957 976 503 504
958 977 141 143
959 978 141 142
960 979 462 464
961 980 505 560
962 981 138 140
963 982 501 556
964 983 137 190
965 984 501 502
966 986 323 376
967 987 434 436
968 988 133 134
969 989 433 488
970 990 321 323
971 991 434 435
972 992 322 323
973 993 435 437
974 994 322 324
975 995 437 439
976 996 133 186
977 997 321 376
978 998 438 440
979 1000 437 492
980 1002 438 439
981 1004 321 322