# LAMMPS data file
864 atoms
1754 bonds
1 atom types
1 bond types
-1.0000000000000000e+02 4.0000000000000000e+02 xlo xhi
-1.0000000000000000e+02 4.0000000000000000e+02 ylo yhi
-1.0000000000000000e+00 1.0000000000000000e+00 zlo zhi
 
Masses
 
1 0.0
 
Atoms
 
1 1 1 138.838287 141.051564 0.0
2 1 1 137.792933 141.215432 0.0
3 1 1 140.522491 138.676107 0.0
4 1 1 137.869797 138.024791 0.0
5 1 1 138.403336 139.099401 0.0
6 1 1 138.951121 138.068659 0.0
7 1 1 139.85507 140.710862 0.0
8 1 1 139.048551 139.981194 0.0
9 1 1 139.495064 138.997639 0.0
10 1 1 163.598404 164.314559 0.0
11 1 1 139.058938 144.469108 0.0
12 1 1 139.557847 145.424992 0.0
13 1 1 138.457872 145.365111 0.0
14 1 1 139.514849 143.496358 0.0
15 1 1 138.414216 143.598355 0.0
16 1 1 140.229903 142.680165 0.0
17 1 1 140.136271 144.491755 0.0
18 1 1 138.140979 146.378968 0.0
19 1 1 137.969576 149.237624 0.0
20 1 1 163.968632 148.911928 0.0
21 1 1 139.268891 148.046381 0.0
22 1 1 138.165864 148.161285 0.0
23 1 1 139.279028 150.367884 0.0
24 1 1 139.688793 149.342453 0.0
25 1 1 140.337214 150.404471 0.0
26 1 1 164.114735 147.859082 0.0
27 1 1 138.168507 150.300938 0.0
28 1 1 139.979324 153.255351 0.0
29 1 1 138.696804 151.24614 0.0
30 1 1 140.528429 151.471404 0.0
31 1 1 138.090098 153.126603 0.0
32 1 1 139.669408 152.19829 0.0
33 1 1 139.373557 157.434782 0.0
34 1 1 138.084126 154.231325 0.0
35 1 1 140.043745 155.119229 0.0
36 1 1 139.241991 155.844636 0.0
37 1 1 140.024305 156.591118 0.0
38 1 1 164.161367 156.391192 0.0
39 1 1 139.009477 154.792899 0.0
40 1 1 139.013806 153.713863 0.0
41 1 1 138.18182 156.044939 0.0
42 1 1 164.089171 160.847937 0.0
43 1 1 163.958943 159.660385 0.0
44 1 1 138.148955 160.958913 0.0
45 1 1 139.383065 159.79581 0.0
46 1 1 140.11055 159.000234 0.0
47 1 1 138.205917 159.274248 0.0
48 1 1 164.323098 158.64752 0.0
49 1 1 137.663231 162.60689 0.0
50 1 1 163.649454 161.846378 0.0
51 1 1 140.162063 163.370293 0.0
52 1 1 164.451912 163.671652 0.0
53 1 1 139.324594 162.694345 0.0
54 1 1 138.528549 161.964761 0.0
55 1 1 140.283119 162.189617 0.0
56 1 1 138.481699 163.353145 0.0
57 1 1 163.630573 162.933879 0.0
58 1 1 139.321268 164.052146 0.0
59 1 1 142.219997 138.772026 0.0
60 1 1 142.940834 137.948937 0.0
61 1 1 143.904616 139.342389 0.0
62 1 1 142.860232 139.694123 0.0
63 1 1 140.308269 139.734401 0.0
64 1 1 141.460389 141.504324 0.0
65 1 1 142.487788 141.237038 0.0
66 1 1 141.256252 140.281053 0.0
67 1 1 142.064939 144.809169 0.0
68 1 1 139.635207 141.774854 0.0
69 1 1 141.504206 145.7378 0.0
70 1 1 144.289122 142.49424 0.0
71 1 1 142.590804 143.111442 0.0
72 1 1 141.173699 144.190351 0.0
73 1 1 141.480565 143.16579 0.0
74 1 1 143.671242 143.391065 0.0
75 1 1 142.933009 144.165861 0.0
76 1 1 139.927248 146.443996 0.0
77 1 1 143.213758 145.211446 0.0
78 1 1 142.225094 146.552266 0.0
79 1 1 141.721186 148.823959 0.0
80 1 1 144.607891 149.989964 0.0
81 1 1 140.802146 149.435367 0.0
82 1 1 143.510359 148.94407 0.0
83 1 1 141.397526 147.790799 0.0
84 1 1 142.649924 148.277964 0.0
85 1 1 144.472809 152.08993 0.0
86 1 1 144.192821 153.133048 0.0
87 1 1 143.051083 150.870668 0.0
88 1 1 141.688529 153.901171 0.0
89 1 1 141.732913 152.82185 0.0
90 1 1 143.426955 154.144226 0.0
91 1 1 140.648014 154.119627 0.0
92 1 1 141.39405 150.543131 0.0
93 1 1 142.638747 153.41276 0.0
94 1 1 143.271704 151.932492 0.0
95 1 1 141.869213 154.962159 0.0
96 1 1 141.03752 158.116352 0.0
97 1 1 144.414605 156.971037 0.0
98 1 1 141.177 156.597902 0.0
99 1 1 142.764448 157.561486 0.0
100 1 1 142.128608 156.008549 0.0
101 1 1 143.186465 155.861677 0.0
102 1 1 142.321321 160.508874 0.0
103 1 1 141.71982 159.611073 0.0
104 1 1 142.631202 158.611315 0.0
105 1 1 141.237563 160.558663 0.0
106 1 1 143.631317 158.985972 0.0
107 1 1 143.816677 157.897401 0.0
108 1 1 141.668666 164.495734 0.0
109 1 1 141.694855 163.343525 0.0
110 1 1 141.808501 161.475679 0.0
111 1 1 142.589475 163.940648 0.0
112 1 1 142.697449 162.875816 0.0
113 1 1 146.421558 138.843345 0.0
114 1 1 146.056765 137.836118 0.0
115 1 1 145.928175 139.772398 0.0
116 1 1 144.867331 139.821379 0.0
117 1 1 147.444346 138.738533 0.0
118 1 1 145.348984 138.849583 0.0
119 1 1 144.975466 137.851604 0.0
120 1 1 143.979914 140.406129 0.0
121 1 1 146.503739 140.657685 0.0
122 1 1 143.981394 138.274177 0.0
123 1 1 146.250605 143.510193 0.0
124 1 1 145.373862 142.846973 0.0
125 1 1 145.291831 143.955983 0.0
126 1 1 144.100817 141.447514 0.0
127 1 1 146.224952 141.685189 0.0
128 1 1 145.137117 141.775763 0.0
129 1 1 147.375495 144.735835 0.0
130 1 1 145.496599 147.463301 0.0
131 1 1 143.955265 146.000538 0.0
132 1 1 144.700297 146.768302 0.0
133 1 1 146.05066 146.551412 0.0
134 1 1 145.003497 145.731122 0.0
135 1 1 145.138729 148.450089 0.0
136 1 1 144.792002 151.04553 0.0
137 1 1 144.50008 154.160954 0.0
138 1 1 145.928788 149.924045 0.0
139 1 1 146.805215 150.545212 0.0
140 1 1 145.853268 151.035587 0.0
141 1 1 146.442411 153.08916 0.0
142 1 1 145.565253 152.098193 0.0
143 1 1 146.044622 154.898047 0.0
144 1 1 145.718775 155.932129 0.0
145 1 1 143.929073 155.100498 0.0
146 1 1 145.000068 155.124023 0.0
147 1 1 145.911453 158.028726 0.0
148 1 1 145.908055 156.966574 0.0
149 1 1 143.78953 161.045301 0.0
150 1 1 145.871212 159.083479 0.0
151 1 1 144.886706 159.449962 0.0
152 1 1 144.814322 158.363964 0.0
153 1 1 144.26554 162.013397 0.0
154 1 1 145.234149 161.547084 0.0
155 1 1 143.991267 159.989656 0.0
156 1 1 144.902906 160.53814 0.0
157 1 1 147.324392 162.561759 0.0
158 1 1 146.241643 163.762193 0.0
159 1 1 145.131443 163.788192 0.0
160 1 1 152.000209 137.59869 0.0
161 1 1 151.395503 138.5982 0.0
162 1 1 149.8773 137.720961 0.0
163 1 1 148.160773 164.182711 0.0
164 1 1 148.883485 138.107905 0.0
165 1 1 150.932192 137.625321 0.0
166 1 1 147.960525 139.66126 0.0
167 1 1 149.746553 138.798297 0.0
168 1 1 151.297069 140.489141 0.0
169 1 1 147.118462 142.904528 0.0
170 1 1 150.269147 142.639378 0.0
171 1 1 151.087364 143.374463 0.0
172 1 1 149.149874 143.45202 0.0
173 1 1 151.320676 142.314836 0.0
174 1 1 148.255079 144.08617 0.0
175 1 1 148.174216 142.997194 0.0
176 1 1 149.073807 142.389791 0.0
177 1 1 149.677004 139.903665 0.0
178 1 1 147.511363 141.925593 0.0
179 1 1 150.626197 141.490852 0.0
180 1 1 148.426761 145.163695 0.0
181 1 1 150.179405 145.973773 0.0
182 1 1 150.27539 144.916392 0.0
183 1 1 149.274908 144.517567 0.0
184 1 1 148.541141 146.23494 0.0
185 1 1 150.14276 143.849276 0.0
186 1 1 147.556802 145.800977 0.0
187 1 1 148.756397 147.269625 0.0
188 1 1 148.721685 150.256075 0.0
189 1 1 149.222513 149.018215 0.0
190 1 1 148.178676 149.324879 0.0
191 1 1 150.413318 149.025582 0.0
192 1 1 150.455872 150.094318 0.0
193 1 1 149.770336 152.608736 0.0
194 1 1 148.645715 153.816455 0.0
195 1 1 147.800803 151.963942 0.0
196 1 1 149.401422 154.712345 0.0
197 1 1 149.645397 150.798187 0.0
198 1 1 148.851439 152.047629 0.0
199 1 1 147.839879 150.868516 0.0
200 1 1 149.691975 153.663389 0.0
201 1 1 147.616254 154.078891 0.0
202 1 1 147.545975 153.012788 0.0
203 1 1 147.47799 156.878633 0.0
204 1 1 148.776256 157.661043 0.0
205 1 1 148.354408 154.875393 0.0
206 1 1 148.622093 155.929213 0.0
207 1 1 149.698111 155.763632 0.0
208 1 1 147.31453 155.131596 0.0
209 1 1 149.456825 156.819375 0.0
210 1 1 148.845571 160.625976 0.0
211 1 1 147.779653 160.751537 0.0
212 1 1 149.150274 159.586783 0.0
213 1 1 150.228018 157.911197 0.0
214 1 1 150.725463 159.66355 0.0
215 1 1 147.353227 159.167518 0.0
216 1 1 149.905458 160.371609 0.0
217 1 1 148.346699 158.812278 0.0
218 1 1 149.365212 158.535296 0.0
219 1 1 148.81121 163.328856 0.0
220 1 1 149.843414 163.655467 0.0
221 1 1 150.410721 161.688458 0.0
222 1 1 150.468057 162.796921 0.0
223 1 1 148.094047 161.771277 0.0
224 1 1 153.040126 137.865407 0.0
225 1 1 152.173772 139.352631 0.0
226 1 1 153.191753 143.343918 0.0
227 1 1 154.188557 141.760212 0.0
228 1 1 153.069099 144.56652 0.0
229 1 1 153.487742 140.942778 0.0
230 1 1 152.219984 143.894164 0.0
231 1 1 153.121191 141.959892 0.0
232 1 1 154.575877 139.840833 0.0
233 1 1 152.422744 141.130124 0.0
234 1 1 152.432027 146.909987 0.0
235 1 1 150.704969 146.910471 0.0
236 1 1 155.520714 146.41312 0.0
237 1 1 151.568676 146.236692 0.0
238 1 1 151.703852 144.868727 0.0
239 1 1 154.137309 144.868559 0.0
240 1 1 153.358335 146.333633 0.0
241 1 1 152.488369 145.631442 0.0
242 1 1 154.746207 143.972002 0.0
243 1 1 154.229094 149.715517 0.0
244 1 1 151.686767 148.662259 0.0
245 1 1 151.455711 149.701714 0.0
246 1 1 151.570742 147.566454 0.0
247 1 1 153.40695 147.397732 0.0
248 1 1 152.556853 148.046495 0.0
249 1 1 154.294965 148.00226 0.0
250 1 1 152.940928 154.503632 0.0
251 1 1 151.562614 152.750946 0.0
252 1 1 150.441604 154.432755 0.0
253 1 1 153.801361 151.524578 0.0
254 1 1 154.543864 152.341599 0.0
255 1 1 154.835893 151.304933 0.0
256 1 1 150.734187 153.407733 0.0
257 1 1 150.985086 151.010049 0.0
258 1 1 154.570735 154.203802 0.0
259 1 1 151.968041 151.446593 0.0
260 1 1 152.904853 150.936738 0.0
261 1 1 152.554325 153.162302 0.0
262 1 1 153.542298 152.726047 0.0
263 1 1 153.796492 158.885035 0.0
264 1 1 153.174274 157.99127 0.0
265 1 1 153.959893 156.295527 0.0
266 1 1 150.876234 156.166117 0.0
267 1 1 152.384163 157.235954 0.0
268 1 1 152.298035 156.1689 0.0
269 1 1 155.222672 155.056063 0.0
270 1 1 151.241003 157.553188 0.0
271 1 1 154.163228 155.207338 0.0
272 1 1 153.170945 155.570284 0.0
273 1 1 152.242007 161.655012 0.0
274 1 1 154.548766 161.295064 0.0
275 1 1 152.591966 160.635486 0.0
276 1 1 153.672762 160.668228 0.0
277 1 1 152.064261 158.251052 0.0
278 1 1 151.054808 158.630516 0.0
279 1 1 152.749722 159.059095 0.0
280 1 1 151.526964 160.383996 0.0
281 1 1 154.880026 163.343759 0.0
282 1 1 152.22374 162.848996 0.0
283 1 1 152.929859 163.781757 0.0
284 1 1 151.350806 162.223929 0.0
285 1 1 153.782339 162.020595 0.0
286 1 1 155.097131 138.268942 0.0
287 1 1 156.995152 139.640232 0.0
288 1 1 157.488594 137.957678 0.0
289 1 1 156.102241 139.01517 0.0
290 1 1 156.248177 142.312501 0.0
291 1 1 155.225881 141.998801 0.0
292 1 1 157.612936 141.493904 0.0
293 1 1 156.881194 143.167147 0.0
294 1 1 155.367656 143.069533 0.0
295 1 1 157.67297 146.964148 0.0
296 1 1 157.32393 144.742203 0.0
297 1 1 156.615906 146.682846 0.0
298 1 1 156.244428 144.885843 0.0
299 1 1 155.205639 147.432362 0.0
300 1 1 157.261171 149.896874 0.0
301 1 1 157.768033 148.008891 0.0
302 1 1 157.095245 148.82765 0.0
303 1 1 155.1429 150.270927 0.0
304 1 1 155.414038 149.236024 0.0
305 1 1 156.101806 148.38994 0.0
306 1 1 156.231306 150.24663 0.0
307 1 1 158.183693 149.005393 0.0
308 1 1 156.566093 151.281505 0.0
309 1 1 155.709304 151.927449 0.0
310 1 1 157.32082 152.103687 0.0
311 1 1 156.41166 152.735979 0.0
312 1 1 158.6926 152.370123 0.0
313 1 1 158.149424 153.27995 0.0
314 1 1 158.318128 151.38458 0.0
315 1 1 156.390948 156.4556 0.0
316 1 1 156.75681 158.882174 0.0
317 1 1 155.022412 156.119954 0.0
318 1 1 158.824288 154.102225 0.0
319 1 1 157.262115 157.941554 0.0
320 1 1 156.238338 154.710983 0.0
321 1 1 156.809615 153.804537 0.0
322 1 1 157.789028 157.017022 0.0
323 1 1 157.290445 154.939108 0.0
324 1 1 157.372149 156.027571 0.0
325 1 1 156.035156 158.077625 0.0
326 1 1 155.516404 157.087495 0.0
327 1 1 156.162232 160.477725 0.0
328 1 1 157.818979 158.860848 0.0
329 1 1 154.753363 159.389889 0.0
330 1 1 155.840749 159.415874 0.0
331 1 1 157.061965 159.904691 0.0
332 1 1 156.279258 137.952416 0.0
333 1 1 155.465161 164.253313 0.0
334 1 1 157.727787 162.850612 0.0
335 1 1 155.98579 163.295846 0.0
336 1 1 160.525966 139.540121 0.0
337 1 1 156.887558 140.702331 0.0
338 1 1 161.05425 140.514072 0.0
339 1 1 160.601662 164.257483 0.0
340 1 1 159.225538 140.615849 0.0
341 1 1 160.314866 138.299635 0.0
342 1 1 158.909046 138.624163 0.0
343 1 1 159.548167 164.374441 0.0
344 1 1 157.938427 140.441751 0.0
345 1 1 158.518908 137.63162 0.0
346 1 1 157.865005 138.97998 0.0
347 1 1 158.698739 139.674946 0.0
348 1 1 160.296221 141.272045 0.0
349 1 1 159.312652 141.682822 0.0
350 1 1 157.93802 143.01222 0.0
351 1 1 158.789068 143.709868 0.0
352 1 1 158.951217 142.678166 0.0
353 1 1 160.938459 143.719866 0.0
354 1 1 159.863495 143.813241 0.0
355 1 1 159.508981 146.415819 0.0
356 1 1 158.702904 145.668781 0.0
357 1 1 159.165561 144.695316 0.0
358 1 1 161.207438 145.792232 0.0
359 1 1 160.578779 146.671894 0.0
360 1 1 161.331249 144.71458 0.0
361 1 1 160.256957 144.839781 0.0
362 1 1 159.343482 149.950081 0.0
363 1 1 160.233662 150.543763 0.0
364 1 1 159.264706 148.884772 0.0
365 1 1 160.318622 149.44954 0.0
366 1 1 161.08498 147.618907 0.0
367 1 1 158.938277 147.340275 0.0
368 1 1 161.422345 155.164471 0.0
369 1 1 160.870583 151.417272 0.0
370 1 1 161.126698 152.477729 0.0
371 1 1 160.218036 153.093129 0.0
372 1 1 160.864065 156.873645 0.0
373 1 1 158.684631 158.229562 0.0
374 1 1 159.675601 154.768738 0.0
375 1 1 160.294889 155.701256 0.0
376 1 1 159.816371 156.693047 0.0
377 1 1 158.853349 157.175382 0.0
378 1 1 158.391394 161.167791 0.0
379 1 1 160.87883 159.470867 0.0
380 1 1 159.455352 161.345071 0.0
381 1 1 159.055767 160.336143 0.0
382 1 1 159.8296 159.586209 0.0
383 1 1 158.7876 159.305621 0.0
384 1 1 157.730437 163.906081 0.0
385 1 1 159.609782 162.624691 0.0
386 1 1 160.869147 162.489044 0.0
387 1 1 163.280933 140.4145 0.0
388 1 1 161.296257 138.787275 0.0
389 1 1 162.362323 138.443399 0.0
390 1 1 163.299652 139.329682 0.0
391 1 1 161.533871 137.752986 0.0
392 1 1 162.524943 164.371366 0.0
393 1 1 164.32465 138.969787 0.0
394 1 1 137.50369 142.977957 0.0
395 1 1 160.02579 142.729717 0.0
396 1 1 162.324501 142.175396 0.0
397 1 1 163.332673 142.576589 0.0
398 1 1 162.254869 144.158828 0.0
399 1 1 161.869695 143.147734 0.0
400 1 1 162.091068 141.050334 0.0
401 1 1 163.106091 141.470291 0.0
402 1 1 164.064259 146.436691 0.0
403 1 1 164.360829 144.059747 0.0
404 1 1 163.334384 144.341475 0.0
405 1 1 162.724473 146.705427 0.0
406 1 1 163.235189 145.727499 0.0
407 1 1 162.084385 149.444571 0.0
408 1 1 163.149022 149.590388 0.0
409 1 1 162.82046 147.779712 0.0
410 1 1 162.501579 151.264141 0.0
411 1 1 163.57744 151.113034 0.0
412 1 1 163.184514 152.10476 0.0
413 1 1 161.20678 153.562708 0.0
414 1 1 137.626637 151.246933 0.0
415 1 1 163.238276 153.178238 0.0
416 1 1 164.150653 152.581077 0.0
417 1 1 164.153565 153.718632 0.0
418 1 1 162.201767 152.538158 0.0
419 1 1 162.270675 153.605116 0.0
420 1 1 161.227915 150.113621 0.0
421 1 1 161.843576 157.30746 0.0
422 1 1 162.033472 156.24252 0.0
423 1 1 162.50925 155.261254 0.0
424 1 1 164.268355 157.537276 0.0
425 1 1 163.275555 157.971939 0.0
426 1 1 163.104262 156.192292 0.0
427 1 1 164.26885 154.941148 0.0
428 1 1 162.443591 160.372269 0.0
429 1 1 161.886787 159.064044 0.0
430 1 1 161.154861 160.687615 0.0
431 1 1 162.459214 162.873756 0.0
432 1 1 162.563769 161.799323 0.0
433 1 1 164.252282 140.377686 0.0
434 1 1 137.743724 139.780178 0.0
435 1 1 138.410322 164.277088 0.0
436 1 1 140.79577 137.801213 0.0
437 1 1 138.201982 140.378836 0.0
438 1 1 141.388733 138.385225 0.0
439 1 1 139.887625 137.983986 0.0
440 1 1 138.719674 141.978905 0.0
441 1 1 138.401811 142.678652 0.0
442 1 1 139.215038 142.610437 0.0
443 1 1 137.870694 142.124768 0.0
444 1 1 140.458948 143.588754 0.0
445 1 1 138.145112 144.499618 0.0
446 1 1 137.687104 147.161898 0.0
447 1 1 140.451892 145.680594 0.0
448 1 1 137.539372 145.612358 0.0
449 1 1 138.456368 147.272765 0.0
450 1 1 138.802236 149.604483 0.0
451 1 1 140.082616 148.511376 0.0
452 1 1 139.176274 147.000363 0.0
453 1 1 140.465388 147.846126 0.0
454 1 1 139.874454 147.356576 0.0
455 1 1 138.81139 148.838867 0.0
456 1 1 164.090425 149.864431 0.0
457 1 1 139.0401 146.218301 0.0
458 1 1 137.986251 152.184944 0.0
459 1 1 138.974192 152.821978 0.0
460 1 1 139.6244 151.260854 0.0
461 1 1 140.536125 152.517331 0.0
462 1 1 138.744077 152.127983 0.0
463 1 1 138.463714 157.470571 0.0
464 1 1 137.939425 156.917763 0.0
465 1 1 138.847016 156.68723 0.0
466 1 1 138.010147 158.06865 0.0
467 1 1 139.751645 154.244265 0.0
468 1 1 138.165056 155.146712 0.0
469 1 1 137.761263 160.116247 0.0
470 1 1 140.042717 161.292658 0.0
471 1 1 137.569726 161.678493 0.0
472 1 1 139.497871 158.327255 0.0
473 1 1 138.756666 158.198619 0.0
474 1 1 140.337267 160.581537 0.0
475 1 1 140.635953 159.804282 0.0
476 1 1 139.594313 160.671826 0.0
477 1 1 138.539259 160.137503 0.0
478 1 1 139.032409 161.15886 0.0
479 1 1 139.071233 158.934955 0.0
480 1 1 140.920164 162.859921 0.0
481 1 1 139.449196 161.785257 0.0
482 1 1 140.933382 163.908494 0.0
483 1 1 140.236321 164.287222 0.0
484 1 1 141.19831 162.153821 0.0
485 1 1 143.15365 138.826809 0.0
486 1 1 141.942192 139.667302 0.0
487 1 1 141.317804 139.189763 0.0
488 1 1 141.873873 142.336203 0.0
489 1 1 143.335249 142.526185 0.0
490 1 1 142.056896 143.880809 0.0
491 1 1 140.701351 141.018931 0.0
492 1 1 142.616979 142.175825 0.0
493 1 1 143.792346 144.515045 0.0
494 1 1 144.299167 145.105891 0.0
495 1 1 143.250616 141.766714 0.0
496 1 1 141.092715 142.343457 0.0
497 1 1 140.561203 141.790503 0.0
498 1 1 143.094311 140.576937 0.0
499 1 1 143.042367 146.125038 0.0
500 1 1 140.613491 147.090837 0.0
501 1 1 140.882716 145.055845 0.0
502 1 1 143.452693 146.786079 0.0
503 1 1 143.027299 147.422499 0.0
504 1 1 140.83474 146.350024 0.0
505 1 1 142.254498 147.45443 0.0
506 1 1 142.422776 145.659304 0.0
507 1 1 141.370061 146.881837 0.0
508 1 1 143.696868 149.849213 0.0
509 1 1 142.30289 150.309236 0.0
510 1 1 142.936601 149.889532 0.0
511 1 1 140.843505 148.519369 0.0
512 1 1 142.587385 149.206171 0.0
513 1 1 141.803055 149.725077 0.0
514 1 1 142.152225 151.060171 0.0
515 1 1 141.498306 151.459246 0.0
516 1 1 143.337227 152.849574 0.0
517 1 1 141.170108 152.127356 0.0
518 1 1 143.929779 151.330631 0.0
519 1 1 142.273726 151.813322 0.0
520 1 1 140.902134 153.21473 0.0
521 1 1 143.919156 150.579647 0.0
522 1 1 142.583442 152.510513 0.0
523 1 1 141.289167 155.675712 0.0
524 1 1 142.819808 155.017499 0.0
525 1 1 140.59725 157.313197 0.0
526 1 1 140.572386 155.867866 0.0
527 1 1 140.947506 154.993494 0.0
528 1 1 142.052831 156.933751 0.0
529 1 1 143.525112 156.738833 0.0
530 1 1 142.767606 156.66526 0.0
531 1 1 142.522167 154.318376 0.0
532 1 1 140.145954 157.948766 0.0
533 1 1 141.828385 157.655159 0.0
534 1 1 144.06168 156.110723 0.0
535 1 1 142.862329 161.256373 0.0
536 1 1 143.122035 160.104517 0.0
537 1 1 141.72328 158.705973 0.0
538 1 1 141.017148 159.04211 0.0
539 1 1 142.631006 159.543464 0.0
540 1 1 142.596924 161.969304 0.0
541 1 1 140.830262 161.414678 0.0
542 1 1 143.351358 161.884925 0.0
543 1 1 143.471379 164.186708 0.0
544 1 1 143.426936 163.429573 0.0
545 1 1 141.905085 162.417004 0.0
546 1 1 145.563615 140.630327 0.0
547 1 1 147.313082 141.062185 0.0
548 1 1 146.884949 139.693422 0.0
549 1 1 144.200376 164.374439 0.0
550 1 1 144.834082 140.872647 0.0
551 1 1 147.18976 164.031584 0.0
552 1 1 147.134361 137.829782 0.0
553 1 1 146.259125 142.589319 0.0
554 1 1 147.201211 143.826605 0.0
555 1 1 144.60262 143.346153 0.0
556 1 1 144.381704 144.070587 0.0
557 1 1 146.522945 145.127284 0.0
558 1 1 146.649115 145.867841 0.0
559 1 1 146.517876 144.374237 0.0
560 1 1 145.823516 144.751207 0.0
561 1 1 146.421917 147.528234 0.0
562 1 1 147.156986 147.298445 0.0
563 1 1 144.010309 147.393318 0.0
564 1 1 145.919072 145.620768 0.0
565 1 1 143.534355 147.997905 0.0
566 1 1 145.037429 144.825597 0.0
567 1 1 144.447113 149.074417 0.0
568 1 1 145.219796 149.345279 0.0
569 1 1 145.904934 148.991636 0.0
570 1 1 146.044905 148.218504 0.0
571 1 1 146.995653 148.050913 0.0
572 1 1 144.221961 148.323902 0.0
573 1 1 146.621762 148.720104 0.0
574 1 1 147.08196 151.414946 0.0
575 1 1 146.415243 151.763308 0.0
576 1 1 145.570073 153.446324 0.0
577 1 1 145.067796 152.872643 0.0
578 1 1 146.137019 153.967355 0.0
579 1 1 146.941318 152.304928 0.0
580 1 1 146.776021 154.37508 0.0
581 1 1 144.809256 156.048228 0.0
582 1 1 146.665778 156.431244 0.0
583 1 1 146.584396 155.657907 0.0
584 1 1 145.411214 154.22034 0.0
585 1 1 145.158917 157.499177 0.0
586 1 1 146.583253 159.623161 0.0
587 1 1 146.361608 160.325053 0.0
588 1 1 147.298267 158.209616 0.0
589 1 1 146.646393 158.577511 0.0
590 1 1 145.658875 159.996397 0.0
591 1 1 146.717562 157.499096 0.0
592 1 1 144.16801 163.626532 0.0
593 1 1 145.661963 163.005235 0.0
594 1 1 144.623373 163.024675 0.0
595 1 1 145.091416 162.452527 0.0
596 1 1 145.790296 160.803584 0.0
597 1 1 147.175801 161.625402 0.0
598 1 1 146.163955 161.460342 0.0
599 1 1 143.878164 162.833396 0.0
600 1 1 145.832463 162.238146 0.0
601 1 1 146.43615 162.856169 0.0
602 1 1 146.562487 162.095363 0.0
603 1 1 148.356957 138.841259 0.0
604 1 1 147.372586 140.327804 0.0
605 1 1 148.761145 140.070235 0.0
606 1 1 147.967639 138.040387 0.0
607 1 1 148.959994 139.310077 0.0
608 1 1 151.275033 139.538395 0.0
609 1 1 149.118201 140.712163 0.0
610 1 1 150.613324 139.116213 0.0
611 1 1 150.596604 139.877166 0.0
612 1 1 150.373112 140.598624 0.0
613 1 1 149.783266 141.07419 0.0
614 1 1 149.788883 141.841992 0.0
615 1 1 149.113267 141.465084 0.0
616 1 1 152.184543 140.256368 0.0
617 1 1 151.540693 141.392185 0.0
618 1 1 148.112024 141.010253 0.0
619 1 1 148.40426 141.766924 0.0
620 1 1 149.284131 145.62612 0.0
621 1 1 147.875018 147.581095 0.0
622 1 1 149.72732 146.788617 0.0
623 1 1 149.625313 147.552204 0.0
624 1 1 147.770632 146.794542 0.0
625 1 1 147.011892 146.553914 0.0
626 1 1 149.567904 149.865798 0.0
627 1 1 147.524697 149.970262 0.0
628 1 1 147.701304 148.346445 0.0
629 1 1 149.842175 148.309937 0.0
630 1 1 147.313601 149.022518 0.0
631 1 1 148.454882 148.451579 0.0
632 1 1 146.818171 149.610983 0.0
633 1 1 149.113927 148.106279 0.0
634 1 1 149.692512 151.698055 0.0
635 1 1 148.419678 156.822472 0.0
636 1 1 150.496903 155.338096 0.0
637 1 1 147.698508 155.97204 0.0
638 1 1 150.392743 156.979211 0.0
639 1 1 150.716546 160.817288 0.0
640 1 1 146.842742 160.92894 0.0
641 1 1 148.214058 159.800744 0.0
642 1 1 147.868063 157.724235 0.0
643 1 1 150.183165 158.915063 0.0
644 1 1 149.574869 161.233539 0.0
645 1 1 147.15353 160.098344 0.0
646 1 1 149.097177 164.208511 0.0
647 1 1 151.334423 163.18453 0.0
648 1 1 147.839188 163.332197 0.0
649 1 1 149.545084 162.764619 0.0
650 1 1 148.887265 162.347852 0.0
651 1 1 151.938562 163.701952 0.0
652 1 1 148.215935 162.666876 0.0
653 1 1 149.545002 161.992217 0.0
654 1 1 153.82719 139.317276 0.0
655 1 1 153.3579 138.718689 0.0
656 1 1 152.329837 138.460164 0.0
657 1 1 153.080504 139.439243 0.0
658 1 1 153.815982 144.008092 0.0
659 1 1 154.133091 143.285402 0.0
660 1 1 151.914857 143.024285 0.0
661 1 1 155.216694 140.479332 0.0
662 1 1 153.770267 142.606995 0.0
663 1 1 154.541713 142.63088 0.0
664 1 1 152.189656 142.01552 0.0
665 1 1 152.943099 140.192317 0.0
666 1 1 154.435868 140.790726 0.0
667 1 1 152.564975 142.684564 0.0
668 1 1 153.695693 140.062545 0.0
669 1 1 154.799295 145.515251 0.0
670 1 1 154.088984 145.789184 0.0
671 1 1 154.301257 147.074539 0.0
672 1 1 151.006816 145.496898 0.0
673 1 1 155.167377 144.826255 0.0
674 1 1 154.589849 146.366102 0.0
675 1 1 150.974328 144.295524 0.0
676 1 1 153.394414 145.425023 0.0
677 1 1 153.434345 148.335118 0.0
678 1 1 154.56362 148.870096 0.0
679 1 1 153.545143 149.089316 0.0
680 1 1 154.118376 150.644298 0.0
681 1 1 150.891534 148.236813 0.0
682 1 1 153.458009 150.211009 0.0
683 1 1 152.556543 148.981241 0.0
684 1 1 152.987437 149.608847 0.0
685 1 1 150.346131 147.734381 0.0
686 1 1 152.425813 150.125984 0.0
687 1 1 153.322022 153.65504 0.0
688 1 1 151.794938 150.549407 0.0
689 1 1 151.185239 151.912989 0.0
690 1 1 151.360478 154.088997 0.0
691 1 1 150.435715 151.751026 0.0
692 1 1 153.011335 151.973065 0.0
693 1 1 152.33339 152.271193 0.0
694 1 1 150.677654 152.48086 0.0
695 1 1 152.142862 153.976495 0.0
696 1 1 154.053802 153.476115 0.0
697 1 1 151.59155 156.732184 0.0
698 1 1 153.681127 157.196626 0.0
699 1 1 152.326102 155.242109 0.0
700 1 1 153.105134 156.646637 0.0
701 1 1 154.370232 157.686203 0.0
702 1 1 154.592414 156.955706 0.0
703 1 1 151.609597 155.572822 0.0
704 1 1 154.571537 158.42666 0.0
705 1 1 151.169479 154.969242 0.0
706 1 1 151.858019 154.671487 0.0
707 1 1 153.161261 159.887237 0.0
708 1 1 152.226994 159.801107 0.0
709 1 1 151.374751 161.293917 0.0
710 1 1 153.930325 159.796857 0.0
711 1 1 154.673197 162.291209 0.0
712 1 1 154.539291 160.325283 0.0
713 1 1 151.8144 159.157968 0.0
714 1 1 153.764059 164.319313 0.0
715 1 1 153.122452 161.395948 0.0
716 1 1 152.924198 162.277752 0.0
717 1 1 153.861404 163.576993 0.0
718 1 1 154.094916 162.865614 0.0
719 1 1 153.313864 162.937552 0.0
720 1 1 155.207148 139.188583 0.0
721 1 1 155.655162 139.831621 0.0
722 1 1 154.269232 138.702926 0.0
723 1 1 156.966293 138.71138 0.0
724 1 1 156.716468 144.067282 0.0
725 1 1 157.199068 142.309124 0.0
726 1 1 155.986713 140.529443 0.0
727 1 1 155.625417 144.206506 0.0
728 1 1 155.53935 141.154131 0.0
729 1 1 157.516043 143.844148 0.0
730 1 1 156.272425 141.386484 0.0
731 1 1 156.09278 143.627071 0.0
732 1 1 155.553564 145.496457 0.0
733 1 1 158.131052 144.328131 0.0
734 1 1 156.235368 145.837093 0.0
735 1 1 157.811004 145.500463 0.0
736 1 1 156.912174 145.540765 0.0
737 1 1 158.488964 146.546403 0.0
738 1 1 157.379189 146.121127 0.0
739 1 1 156.875194 147.703336 0.0
740 1 1 155.161148 148.351777 0.0
741 1 1 158.213264 149.911537 0.0
742 1 1 158.658643 148.204887 0.0
743 1 1 156.129845 147.464054 0.0
744 1 1 156.333276 149.331766 0.0
745 1 1 157.875488 150.579556 0.0
746 1 1 159.221089 151.249865 0.0
747 1 1 155.696286 151.001213 0.0
748 1 1 155.921175 153.522152 0.0
749 1 1 155.363221 152.773605 0.0
750 1 1 157.444682 151.193386 0.0
751 1 1 155.147189 153.48819 0.0
752 1 1 159.111827 153.209307 0.0
753 1 1 157.282991 153.024192 0.0
754 1 1 155.498134 154.168199 0.0
755 1 1 155.851279 155.715593 0.0
756 1 1 156.591683 155.552383 0.0
757 1 1 158.805065 155.13228 0.0
758 1 1 155.124168 157.90827 0.0
759 1 1 157.700876 154.093962 0.0
760 1 1 158.16919 154.711863 0.0
761 1 1 156.582326 157.335674 0.0
762 1 1 158.099025 155.464561 0.0
763 1 1 157.985072 159.782252 0.0
764 1 1 157.75253 160.517764 0.0
765 1 1 155.309902 158.65241 0.0
766 1 1 155.307611 161.828824 0.0
767 1 1 155.286883 160.138937 0.0
768 1 1 155.334872 160.877842 0.0
769 1 1 156.874639 164.256654 0.0
770 1 1 156.959731 160.958568 0.0
771 1 1 156.100536 162.268633 0.0
772 1 1 156.911668 163.47358 0.0
773 1 1 157.535939 161.471028 0.0
774 1 1 156.595983 161.661036 0.0
775 1 1 156.720817 162.731314 0.0
776 1 1 154.220795 137.936184 0.0
777 1 1 155.393046 162.579473 0.0
778 1 1 154.527877 164.213297 0.0
779 1 1 155.912979 161.364419 0.0
780 1 1 157.175324 162.12851 0.0
781 1 1 160.120098 140.364737 0.0
782 1 1 161.23156 141.423749 0.0
783 1 1 159.746423 139.015938 0.0
784 1 1 160.852723 163.390637 0.0
785 1 1 159.620686 139.770381 0.0
786 1 1 158.414337 141.947573 0.0
787 1 1 158.498822 141.18836 0.0
788 1 1 159.605302 145.494573 0.0
789 1 1 160.290229 145.789195 0.0
790 1 1 160.857231 148.510521 0.0
791 1 1 160.114403 148.539287 0.0
792 1 1 158.658152 150.53915 0.0
793 1 1 159.880166 147.289589 0.0
794 1 1 159.57938 148.003147 0.0
795 1 1 159.594374 152.408582 0.0
796 1 1 160.417987 154.023288 0.0
797 1 1 159.687649 153.836534 0.0
798 1 1 160.5961 154.768955 0.0
799 1 1 159.94999 151.428513 0.0
800 1 1 160.277739 152.124471 0.0
801 1 1 161.152845 156.020549 0.0
802 1 1 161.594348 158.191372 0.0
803 1 1 159.381722 155.629604 0.0
804 1 1 160.19837 158.322673 0.0
805 1 1 160.214364 157.537327 0.0
806 1 1 159.511025 158.693664 0.0
807 1 1 159.542502 157.897361 0.0
808 1 1 158.266942 156.217926 0.0
809 1 1 160.938832 157.795701 0.0
810 1 1 159.006363 156.269634 0.0
811 1 1 160.364759 161.153478 0.0
812 1 1 160.994362 161.587446 0.0
813 1 1 160.934453 158.563753 0.0
814 1 1 159.965507 160.50927 0.0
815 1 1 158.858756 162.070789 0.0
816 1 1 161.56799 163.079812 0.0
817 1 1 158.552672 163.278139 0.0
818 1 1 158.090066 162.024817 0.0
819 1 1 160.183913 161.896065 0.0
820 1 1 160.074325 163.446617 0.0
821 1 1 159.289039 163.49439 0.0
822 1 1 163.263966 138.399422 0.0
823 1 1 161.449959 139.701325 0.0
824 1 1 162.074131 139.303733 0.0
825 1 1 163.961123 138.139268 0.0
826 1 1 163.918908 141.075822 0.0
827 1 1 162.538638 139.88554 0.0
828 1 1 161.425006 142.1657 0.0
829 1 1 160.681411 142.097763 0.0
830 1 1 160.982394 142.800643 0.0
831 1 1 163.979634 141.870808 0.0
832 1 1 162.889433 143.448536 0.0
833 1 1 163.681299 143.430745 0.0
834 1 1 161.539746 146.689182 0.0
835 1 1 162.015033 145.327352 0.0
836 1 1 163.512949 147.173817 0.0
837 1 1 163.943608 145.08122 0.0
838 1 1 162.078415 146.080527 0.0
839 1 1 162.686292 144.982316 0.0
840 1 1 161.608396 148.400297 0.0
841 1 1 163.09157 148.666073 0.0
842 1 1 162.34172 148.562537 0.0
843 1 1 161.985445 147.349121 0.0
844 1 1 162.175893 150.374522 0.0
845 1 1 161.206697 149.181005 0.0
846 1 1 161.724515 151.751349 0.0
847 1 1 162.945021 150.458961 0.0
848 1 1 161.992627 154.465257 0.0
849 1 1 163.518035 154.411321 0.0
850 1 1 161.645258 150.934033 0.0
851 1 1 162.767988 154.371501 0.0
852 1 1 162.72303 157.044996 0.0
853 1 1 163.438292 155.329753 0.0
854 1 1 162.35227 158.072219 0.0
855 1 1 163.486494 157.049452 0.0
856 1 1 162.726538 158.730913 0.0
857 1 1 161.653017 159.944604 0.0
858 1 1 163.441393 158.905238 0.0
859 1 1 162.992655 159.584653 0.0
860 1 1 163.092029 161.048882 0.0
861 1 1 163.346983 160.329862 0.0
862 1 1 161.655989 161.970139 0.0
863 1 1 163.013105 163.599586 0.0
864 1 1 161.484879 163.839198 0.0
 
Bonds
 
1 1 4 6
2 1 6 439
3 1 6 9
4 1 439 3
5 1 436 3
6 1 60 122
7 1 60 59
8 1 60 485
9 1 119 122
10 1 119 114
11 1 119 118
12 1 114 113
13 1 606 164
14 1 606 117
15 1 164 162
16 1 164 603
17 1 164 167
18 1 162 167
19 1 9 5
20 1 9 3
21 1 9 63
22 1 9 8
23 1 3 438
24 1 3 63
25 1 3 487
26 1 438 59
27 1 59 485
28 1 59 486
29 1 485 62
30 1 485 61
31 1 122 61
32 1 118 113
33 1 118 116
34 1 118 115
35 1 113 117
36 1 113 115
37 1 117 603
38 1 117 166
39 1 603 166
40 1 603 607
41 1 167 607
42 1 167 177
43 1 434 5
44 1 434 437
45 1 5 8
46 1 63 7
47 1 63 66
48 1 487 486
49 1 486 62
50 1 486 66
51 1 62 61
52 1 62 498
53 1 61 116
54 1 61 120