# LAMMPS data file
100 atoms
191 bonds
1 atom types
1 bond types
-1.0000000000000000e+02 4.0000000000000000e+02 xlo xhi
-1.0000000000000000e+02 4.0000000000000000e+02 ylo yhi
-1.0000000000000000e+00 1.0000000000000000e+00 zlo zhi
 
Masses
 
1 0.0
 
Atoms
 
1 1 1 147.117344 147.218283 0.0
2 1 1 146.899381 149.960802 0.0
3 1 1 146.619607 151.261775 0.0
4 1 1 147.533795 152.422185 0.0
5 1 1 148.42175 153.948803 0.0
6 1 1 147.743415 154.822304 0.0
7 1 1 147.68279 148.10943 0.0
8 1 1 147.508646 149.100348 0.0
9 1 1 147.938089 150.034293 0.0
10 1 1 148.953708 149.931852 0.0
11 1 1 148.295741 151.004014 0.0
12 1 1 149.555212 149.056041 0.0
13 1 1 149.873452 151.551049 0.0
14 1 1 149.990625 150.033519 0.0
15 1 1 149.146792 153.183512 0.0
16 1 1 148.799619 154.944569 0.0
17 1 1 150.489902 148.28525 0.0
18 1 1 149.432204 148.020536 0.0
19 1 1 148.998188 147.047183 0.0
20 1 1 151.050669 149.959463 0.0
21 1 1 150.056601 153.634778 0.0
22 1 1 150.526717 152.686769 0.0
23 1 1 151.043677 153.899818 0.0
24 1 1 152.247324 147.697945 0.0
25 1 1 152.69151 148.630976 0.0
26 1 1 151.958726 149.369009 0.0
27 1 1 152.02892 150.398978 0.0
28 1 1 151.226993 151.076238 0.0
29 1 1 152.213787 151.427138 0.0
30 1 1 151.563205 152.977091 0.0
31 1 1 152.751781 155.134177 0.0
32 1 1 151.880077 146.735157 0.0
33 1 1 153.720889 148.837286 0.0
34 1 1 152.711891 153.098453 0.0
35 1 1 152.070166 153.946052 0.0
36 1 1 153.079922 154.134143 0.0
37 1 1 153.145299 147.153151 0.0
38 1 1 154.649018 149.347339 0.0
39 1 1 153.708191 149.890786 0.0
40 1 1 153.883998 151.504856 0.0
41 1 1 153.022114 152.083899 0.0
42 1 1 153.935932 152.588041 0.0
43 1 1 154.887634 153.027447 0.0
44 1 1 154.681789 154.037052 0.0
45 1 1 153.797298 155.339207 0.0
46 1 1 155.149626 147.706327 0.0
47 1 1 154.81956 151.999079 0.0
48 1 1 154.955358 150.326831 0.0
49 1 1 146.889406 153.288681 0.0
50 1 1 146.699037 154.34429 0.0
51 1 1 155.292224 146.844054 0.0
52 1 1 147.004891 155.321678 0.0
53 1 1 146.818239 148.500679 0.0
54 1 1 147.384767 150.755923 0.0
55 1 1 147.515007 151.509937 0.0
56 1 1 146.68262 152.197919 0.0
57 1 1 147.512579 153.972345 0.0
58 1 1 147.789709 153.291257 0.0
59 1 1 148.015687 147.283226 0.0
60 1 1 148.271199 151.901367 0.0
61 1 1 148.898073 152.30898 0.0
62 1 1 148.210206 146.60151 0.0
63 1 1 148.624474 148.721991 0.0
64 1 1 148.540455 147.835464 0.0
65 1 1 149.248786 150.829335 0.0
66 1 1 148.986778 151.568873 0.0
67 1 1 149.645765 152.424625 0.0
68 1 1 148.343353 152.806987 0.0
69 1 1 149.825532 146.727333 0.0
70 1 1 150.130977 147.422606 0.0
71 1 1 151.316115 147.857712 0.0
72 1 1 150.459139 149.231057 0.0
73 1 1 150.385034 150.820207 0.0
74 1 1 150.733295 151.813995 0.0
75 1 1 149.392472 154.255416 0.0
76 1 1 150.243955 154.509057 0.0
77 1 1 149.681049 154.997226 0.0
78 1 1 150.879183 147.235024 0.0
79 1 1 151.763829 148.473019 0.0
80 1 1 151.150696 148.936643 0.0
81 1 1 151.472419 151.997526 0.0
82 1 1 151.050501 146.501287 0.0
83 1 1 150.378438 155.259512 0.0
84 1 1 150.954576 154.775311 0.0
85 1 1 153.067078 151.128943 0.0
86 1 1 152.934287 150.362694 0.0
87 1 1 152.845793 149.58168 0.0
88 1 1 152.166758 152.337306 0.0
89 1 1 153.897253 154.450384 0.0
90 1 1 151.729125 154.814767 0.0
91 1 1 154.382492 148.226726 0.0
92 1 1 153.584623 147.94337 0.0
93 1 1 154.130121 150.659407 0.0
94 1 1 153.617659 153.421846 0.0
95 1 1 154.232216 147.478701 0.0
96 1 1 155.073376 148.578508 0.0
97 1 1 154.709841 151.142819 0.0
98 1 1 154.599925 154.934113 0.0
99 1 1 154.560348 146.793504 0.0
100 1 1 155.299949 155.135187 0.0
 
Bonds
 
1 1 62 59
2 1 62 19
3 1 1 59
4 1 1 7
5 1 59 7
6 1 59 64
7 1 19 69
8 1 19 64
9 1 19 18
10 1 7 64
11 1 7 53
12 1 7 8
13 1 64 18
14 1 18 70
15 1 18 17
16 1 18 12
17 1 53 8
18 1 8 2
19 1 12 10
20 1 12 72
21 1 12 14
22 1 2 54
23 1 10 9
24 1 10 14
25 1 54 9
26 1 54 3
27 1 54 55
28 1 54 11
29 1 9 8
30 1 9 2
31 1 9 11
32 1 14 72
33 1 14 20
34 1 65 10
35 1 65 66
36 1 65 13
37 1 3 55
38 1 3 56
39 1 55 11
40 1 55 4
41 1 11 66
42 1 11 60
43 1 66 13
44 1 66 60
45 1 66 61
46 1 13 73
47 1 13 67
48 1 56 4
49 1 60 4
50 1 60 61
51 1 4 49
52 1 4 58
53 1 4 68
54 1 61 67
55 1 61 15
56 1 61 68
57 1 67 15
58 1 67 22
59 1 49 58
60 1 49 57
61 1 49 50
62 1 58 68
63 1 58 57
64 1 58 5
65 1 15 68
66 1 15 5
67 1 15 21
68 1 57 5
69 1 57 50
70 1 57 6
71 1 5 6
72 1 5 16
73 1 6 16
74 1 6 52
75 1 16 75
76 1 16 77
77 1 75 77
78 1 77 76
79 1 77 83
80 1 82 78
81 1 82 32
82 1 70 69
83 1 70 78
84 1 70 17
85 1 78 71
86 1 32 24
87 1 37 24
88 1 37 92
89 1 99 95
90 1 99 51
91 1 51 46
92 1 17 71
93 1 17 80
94 1 17 72
95 1 71 24
96 1 71 79
97 1 24 79
98 1 24 25
99 1 92 95
100 1 92 33
101 1 95 91
102 1 95 46
103 1 91 46
104 1 91 33
105 1 91 96
106 1 46 96
107 1 80 79
108 1 80 72
109 1 80 26
110 1 79 25
111 1 79 26
112 1 25 33
113 1 25 26
114 1 33 39
115 1 33 38
116 1 96 38
117 1 72 20
118 1 20 26
119 1 26 87
120 1 87 39
121 1 87 86
122 1 39 38
123 1 39 93
124 1 38 48
125 1 73 14
126 1 73 28
127 1 27 20
128 1 27 26
129 1 27 86
130 1 27 28
131 1 27 29
132 1 86 39
133 1 86 85
134 1 93 48
135 1 93 40
136 1 93 97
137 1 48 97
138 1 28 29
139 1 28 74
140 1 28 81
141 1 29 85
142 1 29 81
143 1 29 88
144 1 29 41
145 1 85 40
146 1 85 41
147 1 40 97
148 1 40 41
149 1 40 47
150 1 40 42
151 1 97 47
152 1 74 13
153 1 74 81
154 1 74 22
155 1 81 88
156 1 88 41
157 1 88 30
158 1 88 34
159 1 41 34
160 1 41 42
161 1 47 42
162 1 47 43
163 1 22 30
164 1 22 21
165 1 30 23
166 1 30 35
167 1 34 35
168 1 34 36
169 1 42 43
170 1 42 94
171 1 43 44
172 1 21 23
173 1 21 75
174 1 21 76
175 1 23 35
176 1 23 84
177 1 35 36
178 1 35 90
179 1 36 94
180 1 36 89
181 1 36 31
182 1 44 89
183 1 44 98
184 1 76 84
185 1 76 83
186 1 84 90
187 1 84 83
188 1 89 45
189 1 98 45
190 1 98 100
191 1 31 45
