# LAMMPS data file
100 atoms
193 bonds
1 atom types
1 bond types
-1.0000000000000000e+02 4.0000000000000000e+02 xlo xhi
-1.0000000000000000e+02 4.0000000000000000e+02 ylo yhi
-1.0000000000000000e+00 1.0000000000000000e+00 zlo zhi
 
Masses
 
1 0.0
 
Atoms
 
1 1 1 155.198942 148.956539 0.0
2 1 1 147.231703 148.812141 0.0
3 1 1 147.61606 147.863942 0.0
4 1 1 147.228213 154.108181 0.0
5 1 1 147.122047 155.177498 0.0
6 1 1 148.664156 147.99592 0.0
7 1 1 148.519055 149.664971 0.0
8 1 1 147.739217 150.39403 0.0
9 1 1 147.629569 151.459918 0.0
10 1 1 149.587037 149.641637 0.0
11 1 1 148.786614 152.611732 0.0
12 1 1 149.741884 154.481815 0.0
13 1 1 149.168706 153.571411 0.0
14 1 1 148.276356 154.128595 0.0
15 1 1 149.459762 155.466589 0.0
16 1 1 150.212841 147.192867 0.0
17 1 1 150.455079 148.995478 0.0
18 1 1 151.065506 149.835595 0.0
19 1 1 149.907603 151.231941 0.0
20 1 1 149.839968 152.548409 0.0
21 1 1 150.733124 151.922862 0.0
22 1 1 150.229864 153.558041 0.0
23 1 1 151.247018 147.437726 0.0
24 1 1 151.877951 150.513017 0.0
25 1 1 151.738449 151.568177 0.0
26 1 1 150.89763 150.880274 0.0
27 1 1 151.303168 153.480455 0.0
28 1 1 150.828746 154.448937 0.0
29 1 1 152.042581 146.745206 0.0
30 1 1 153.077479 147.056593 0.0
31 1 1 152.362327 148.793699 0.0
32 1 1 152.904108 152.20358 0.0
33 1 1 152.721787 151.154379 0.0
34 1 1 152.460666 154.777804 0.0
35 1 1 153.853543 147.820551 0.0
36 1 1 153.414147 148.768733 0.0
37 1 1 153.821383 149.747029 0.0
38 1 1 153.735389 151.416288 0.0
39 1 1 155.162508 153.541261 0.0
40 1 1 153.250446 153.23507 0.0
41 1 1 153.470293 155.036393 0.0
42 1 1 154.153139 146.821728 0.0
43 1 1 146.546764 147.919488 0.0
44 1 1 154.840711 149.953317 0.0
45 1 1 146.886657 149.795772 0.0
46 1 1 154.715317 150.996351 0.0
47 1 1 146.764995 150.844242 0.0
48 1 1 155.48599 152.550672 0.0
49 1 1 154.584711 152.052549 0.0
50 1 1 155.264971 154.580129 0.0
51 1 1 147.470798 146.984523 0.0
52 1 1 146.584355 146.965915 0.0
53 1 1 147.35808 152.546561 0.0
54 1 1 148.19994 147.190211 0.0
55 1 1 148.576822 146.574169 0.0
56 1 1 148.135044 148.821644 0.0
57 1 1 148.888149 148.852557 0.0
58 1 1 147.99741 152.278922 0.0
59 1 1 147.874306 153.255553 0.0
60 1 1 148.794804 154.851503 0.0
61 1 1 148.034313 155.037987 0.0
62 1 1 149.224413 147.308038 0.0
63 1 1 149.606932 148.717668 0.0
64 1 1 148.619173 150.555544 0.0
65 1 1 149.018485 151.143604 0.0
66 1 1 150.159724 150.340199 0.0
67 1 1 149.253251 151.848555 0.0
68 1 1 148.506879 151.713722 0.0
69 1 1 149.591696 147.962697 0.0
70 1 1 150.332548 148.092212 0.0
71 1 1 150.692199 152.807873 0.0
72 1 1 150.341562 155.227434 0.0
73 1 1 151.032698 146.548084 0.0
74 1 1 151.045164 148.325754 0.0
75 1 1 151.446789 148.983665 0.0
76 1 1 151.762615 148.162419 0.0
77 1 1 152.066737 152.396529 0.0
78 1 1 151.385376 152.581123 0.0
79 1 1 151.74201 154.249142 0.0
80 1 1 152.157846 153.135824 0.0
81 1 1 151.555205 154.986886 0.0
82 1 1 152.280711 147.618856 0.0
83 1 1 152.184553 149.676724 0.0
84 1 1 152.737731 150.239456 0.0
85 1 1 152.425161 153.844231 0.0
86 1 1 152.936067 147.988078 0.0
87 1 1 152.92889 149.527109 0.0
88 1 1 153.428253 150.555504 0.0
89 1 1 153.757074 152.336529 0.0
90 1 1 154.152255 152.942986 0.0
91 1 1 153.130883 154.149541 0.0
92 1 1 154.285182 153.655688 0.0
93 1 1 153.879823 154.247803 0.0
94 1 1 154.379669 154.843186 0.0
95 1 1 154.935386 155.404222 0.0
96 1 1 154.65752 148.247687 0.0
97 1 1 154.737493 147.498455 0.0
98 1 1 154.299404 148.948621 0.0
99 1 1 147.051806 153.242828 0.0
100 1 1 155.405685 151.655015 0.0
 
Bonds
 
1 1 55 54
2 1 52 43
3 1 54 51
4 1 54 3
5 1 54 6
6 1 51 3
7 1 62 6
8 1 62 69
9 1 43 3
10 1 3 6
11 1 3 2
12 1 6 69
13 1 6 57
14 1 69 63
15 1 2 56
16 1 2 45
17 1 56 57
18 1 56 7
19 1 57 63
20 1 57 7
21 1 63 10
22 1 45 8
23 1 45 47
24 1 7 10
25 1 10 66
26 1 47 8
27 1 47 9
28 1 8 7
29 1 8 64
30 1 8 9
31 1 64 7
32 1 64 65
33 1 9 58
34 1 9 68
35 1 65 19
36 1 65 68
37 1 65 67
38 1 19 67
39 1 19 21
40 1 58 68
41 1 58 53
42 1 58 11
43 1 68 67
44 1 68 11
45 1 67 11
46 1 67 20
47 1 53 99
48 1 99 4
49 1 11 20
50 1 11 13
51 1 20 22
52 1 4 14
53 1 4 5
54 1 14 13
55 1 14 60
56 1 14 61
57 1 13 12
58 1 61 60
59 1 61 5
60 1 60 15
61 1 12 22
62 1 12 28
63 1 12 15
64 1 12 72
65 1 73 23
66 1 16 23
67 1 16 70
68 1 23 29
69 1 23 74
70 1 23 76
71 1 29 30
72 1 29 82
73 1 30 42
74 1 30 86
75 1 30 35
76 1 42 35
77 1 42 97
78 1 70 69
79 1 70 74
80 1 70 17
81 1 82 76
82 1 82 86
83 1 76 74
84 1 76 31
85 1 86 35
86 1 86 36
87 1 35 97
88 1 35 96
89 1 35 36
90 1 97 96
91 1 96 98
92 1 96 1
93 1 17 74
94 1 17 63
95 1 17 10
96 1 17 18
97 1 74 75
98 1 75 31
99 1 75 18
100 1 31 36
101 1 31 83
102 1 31 87
103 1 36 98
104 1 36 87
105 1 36 37
106 1 98 1
107 1 98 37
108 1 1 44
109 1 18 24
110 1 18 26
111 1 83 87
112 1 83 24
113 1 87 37
114 1 87 84
115 1 37 44
116 1 44 46
117 1 66 19
118 1 66 26
119 1 24 84
120 1 24 26
121 1 24 25
122 1 24 33
123 1 84 83
124 1 84 88
125 1 84 33
126 1 88 37
127 1 88 33
128 1 88 38
129 1 26 19
130 1 26 25
131 1 26 21
132 1 25 33
133 1 25 21
134 1 25 77
135 1 33 38
136 1 33 32
137 1 38 46
138 1 38 89
139 1 38 49
140 1 46 100
141 1 46 49
142 1 100 49
143 1 100 48
144 1 21 20
145 1 21 71
146 1 21 78
147 1 77 32
148 1 77 78
149 1 77 80
150 1 32 89
151 1 32 40
152 1 89 49
153 1 89 90
154 1 49 48
155 1 71 20
156 1 71 78
157 1 71 22
158 1 71 27
159 1 78 27
160 1 80 27
161 1 80 85
162 1 40 90
163 1 40 91
164 1 90 92
165 1 48 39
166 1 22 13
167 1 22 27
168 1 22 28
169 1 27 28
170 1 27 79
171 1 85 91
172 1 85 79
173 1 85 34
174 1 91 34
175 1 91 93
176 1 91 41
177 1 92 39
178 1 92 93
179 1 39 50
180 1 28 81
181 1 28 79
182 1 28 72
183 1 81 79
184 1 81 34
185 1 79 34
186 1 34 41
187 1 93 94
188 1 93 41
189 1 41 94
190 1 94 50
191 1 94 95
192 1 50 95
193 1 72 15
