# LAMMPS data file
100 atoms
194 bonds
1 atom types
1 bond types
-1.0000000000000000e+02 4.0000000000000000e+02 xlo xhi
-1.0000000000000000e+02 4.0000000000000000e+02 ylo yhi
-1.0000000000000000e+00 1.0000000000000000e+00 zlo zhi
 
Masses
 
1 0.0
 
Atoms
 
1 1 1 146.839322 147.458429 0.0
2 1 1 146.868059 148.639193 0.0
3 1 1 147.42518 150.403456 0.0
4 1 1 147.030862 151.895161 0.0
5 1 1 147.439268 152.867283 0.0
6 1 1 154.984276 153.772329 0.0
7 1 1 155.390582 152.790632 0.0
8 1 1 147.354573 154.71886 0.0
9 1 1 148.773699 148.166052 0.0
10 1 1 147.73784 148.013056 0.0
11 1 1 147.719769 149.359333 0.0
12 1 1 148.462217 150.306815 0.0
13 1 1 147.657805 146.771086 0.0
14 1 1 149.597468 146.617776 0.0
15 1 1 150.075988 147.574975 0.0
16 1 1 150.220392 148.646295 0.0
17 1 1 149.285345 150.966887 0.0
18 1 1 150.178186 151.481567 0.0
19 1 1 148.458525 152.752496 0.0
20 1 1 149.510086 152.894739 0.0
21 1 1 149.873866 153.912982 0.0
22 1 1 148.83293 153.71067 0.0
23 1 1 149.031986 154.73811 0.0
24 1 1 150.64093 146.637951 0.0
25 1 1 150.578078 153.119531 0.0
26 1 1 151.04141 152.147248 0.0
27 1 1 151.692239 146.616858 0.0
28 1 1 151.864888 151.502767 0.0
29 1 1 150.505228 150.462905 0.0
30 1 1 151.487886 154.597527 0.0
31 1 1 151.956655 147.922689 0.0
32 1 1 153.079201 147.684197 0.0
33 1 1 151.355646 149.589014 0.0
34 1 1 152.764908 148.685917 0.0
35 1 1 152.748061 150.692821 0.0
36 1 1 152.841151 153.807219 0.0
37 1 1 153.953038 146.599237 0.0
38 1 1 154.816244 148.882885 0.0
39 1 1 153.863249 148.395739 0.0
40 1 1 153.170366 149.672225 0.0
41 1 1 153.778551 150.531199 0.0
42 1 1 153.281093 152.253708 0.0
43 1 1 153.917332 153.936526 0.0
44 1 1 153.278626 154.792742 0.0
45 1 1 154.820828 147.196084 0.0
46 1 1 146.530081 155.405625 0.0
47 1 1 154.991627 151.770852 0.0
48 1 1 154.818792 150.717542 0.0
49 1 1 154.328015 152.947237 0.0
50 1 1 154.630856 154.784787 0.0
51 1 1 146.834753 149.559887 0.0
52 1 1 146.713327 151.028408 0.0
53 1 1 147.689032 151.273043 0.0
54 1 1 146.508573 154.483864 0.0
55 1 1 147.163192 153.78238 0.0
56 1 1 148.389508 147.329409 0.0
57 1 1 149.293071 148.889749 0.0
58 1 1 148.555752 149.037518 0.0
59 1 1 148.431299 151.249281 0.0
60 1 1 148.079869 151.926272 0.0
61 1 1 148.034946 154.128536 0.0
62 1 1 148.680095 146.617329 0.0
63 1 1 148.191954 155.028041 0.0
64 1 1 149.173201 147.391491 0.0
65 1 1 149.770145 149.409563 0.0
66 1 1 149.641216 150.13494 0.0
67 1 1 149.046525 149.622922 0.0
68 1 1 149.227259 151.926026 0.0
69 1 1 149.965972 154.806909 0.0
70 1 1 150.882554 148.01344 0.0
71 1 1 151.209685 147.363069 0.0
72 1 1 151.022414 151.213557 0.0
73 1 1 150.161302 152.335607 0.0
74 1 1 150.618345 154.420749 0.0
75 1 1 151.137019 148.706261 0.0
76 1 1 150.466333 149.572562 0.0
77 1 1 151.42694 150.599223 0.0
78 1 1 152.053663 152.422971 0.0
79 1 1 151.50767 152.977162 0.0
80 1 1 151.161331 153.773535 0.0
81 1 1 151.923017 153.757961 0.0
82 1 1 152.408354 147.117757 0.0
83 1 1 151.872979 148.83553 0.0
84 1 1 152.278812 149.478377 0.0
85 1 1 153.414209 151.354856 0.0
86 1 1 152.027976 150.185439 0.0
87 1 1 152.712045 151.58111 0.0
88 1 1 152.649851 152.913993 0.0
89 1 1 152.366858 154.55056 0.0
90 1 1 152.512724 155.269711 0.0
91 1 1 153.069537 146.755819 0.0
92 1 1 153.969719 147.498381 0.0
93 1 1 153.990519 149.285637 0.0
94 1 1 154.166807 151.357733 0.0
95 1 1 154.153441 152.094152 0.0
96 1 1 153.433347 153.135807 0.0
97 1 1 155.11878 148.045017 0.0
98 1 1 155.104253 149.719324 0.0
99 1 1 146.572473 150.276922 0.0
100 1 1 154.398927 149.899364 0.0
 
Bonds
 
1 1 62 14
2 1 62 56
3 1 14 24
4 1 14 64
5 1 1 13
6 1 1 10
7 1 13 56
8 1 56 64
9 1 56 10
10 1 56 9
11 1 64 9
12 1 64 15
13 1 10 9
14 1 10 2
15 1 9 58
16 1 9 57
17 1 2 51
18 1 2 11
19 1 58 57
20 1 58 11
21 1 58 67
22 1 57 16
23 1 57 67
24 1 57 65
25 1 51 11
26 1 51 99
27 1 67 65
28 1 67 12
29 1 67 66
30 1 65 16
31 1 99 3
32 1 99 52
33 1 3 11
34 1 3 12
35 1 3 52
36 1 3 53
37 1 12 59
38 1 12 17
39 1 66 65
40 1 66 29
41 1 66 17
42 1 52 4
43 1 53 59
44 1 53 4
45 1 53 60
46 1 59 17
47 1 59 60
48 1 4 5
49 1 60 19
50 1 5 19
51 1 5 55
52 1 19 20
53 1 19 22
54 1 20 22
55 1 20 21
56 1 55 8
57 1 61 22
58 1 61 8
59 1 22 21
60 1 22 23
61 1 21 25
62 1 21 69
63 1 54 8
64 1 54 46
65 1 8 46
66 1 8 63
67 1 63 23
68 1 23 69
69 1 27 24
70 1 27 71
71 1 27 82
72 1 37 91
73 1 37 45
74 1 37 92
75 1 24 71
76 1 24 15
77 1 71 70
78 1 71 31
79 1 82 91
80 1 82 31
81 1 82 32
82 1 91 32
83 1 45 92
84 1 45 97
85 1 15 14
86 1 15 70
87 1 15 16
88 1 70 16
89 1 70 75
90 1 31 83
91 1 31 34
92 1 32 92
93 1 32 34
94 1 32 39
95 1 92 39
96 1 97 38
97 1 16 75
98 1 16 76
99 1 75 83
100 1 75 33
101 1 83 34
102 1 83 33
103 1 83 84
104 1 34 84
105 1 34 40
106 1 39 38
107 1 39 93
108 1 38 93
109 1 38 98
110 1 76 65
111 1 76 33
112 1 76 29
113 1 33 84
114 1 84 40
115 1 84 86
116 1 40 93
117 1 40 35
118 1 93 100
119 1 100 98
120 1 100 41
121 1 29 77
122 1 29 18
123 1 29 72
124 1 77 86
125 1 77 72
126 1 86 33
127 1 86 35
128 1 35 41
129 1 35 87
130 1 35 85
131 1 41 40
132 1 41 48
133 1 41 94
134 1 41 85
135 1 48 100
136 1 48 94
137 1 48 47
138 1 18 17
139 1 18 72
140 1 18 73
141 1 18 26
142 1 72 28
143 1 72 26
144 1 28 87
145 1 28 26
146 1 28 78
147 1 87 85
148 1 87 42
149 1 94 85
150 1 94 95
151 1 94 47
152 1 85 42
153 1 73 26
154 1 73 20
155 1 73 25
156 1 26 25
157 1 26 79
158 1 78 79
159 1 78 88
160 1 42 95
161 1 42 88
162 1 42 96
163 1 95 47
164 1 95 49
165 1 47 7
166 1 25 20
167 1 25 79
168 1 25 80
169 1 88 36
170 1 96 49
171 1 96 36
172 1 96 43
173 1 49 7
174 1 49 43
175 1 49 6
176 1 7 6
177 1 80 81
178 1 80 30
179 1 81 36
180 1 81 30
181 1 36 43
182 1 36 89
183 1 36 44
184 1 43 6
185 1 43 44
186 1 43 50
187 1 6 50
188 1 74 21
189 1 74 69
190 1 74 30
191 1 30 89
192 1 89 44
193 1 89 90
194 1 44 90
