# LAMMPS data file
100 atoms
190 bonds
1 atom types
1 bond types
-1.0000000000000000e+02 4.0000000000000000e+02 xlo xhi
-1.0000000000000000e+02 4.0000000000000000e+02 ylo yhi
-1.0000000000000000e+00 1.0000000000000000e+00 zlo zhi
 
Masses
 
1 0.0
 
Atoms
 
1 1 1 147.266387 147.151524 0.0
2 1 1 147.886361 148.008799 0.0
3 1 1 147.017038 148.569334 0.0
4 1 1 147.770055 149.327439 0.0
5 1 1 147.069237 152.014382 0.0
6 1 1 148.045037 152.41832 0.0
7 1 1 147.259295 153.10964 0.0
8 1 1 148.36514 147.094278 0.0
9 1 1 148.332206 150.2202 0.0
10 1 1 148.835458 151.747914 0.0
11 1 1 148.262556 153.468273 0.0
12 1 1 149.078601 152.771979 0.0
13 1 1 148.691939 154.421367 0.0
14 1 1 148.662101 148.698813 0.0
15 1 1 149.527152 150.979733 0.0
16 1 1 149.148788 155.389381 0.0
17 1 1 149.850859 148.290003 0.0
18 1 1 150.37611 147.367288 0.0
19 1 1 149.764854 149.362148 0.0
20 1 1 150.590005 150.970834 0.0
21 1 1 150.809053 151.983814 0.0
22 1 1 151.856349 152.287292 0.0
23 1 1 150.737842 153.026753 0.0
24 1 1 150.275214 153.9861 0.0
25 1 1 150.733341 148.920042 0.0
26 1 1 151.771302 149.387053 0.0
27 1 1 150.883107 149.961418 0.0
28 1 1 151.24715 154.690841 0.0
29 1 1 151.467536 147.360591 0.0
30 1 1 152.501883 147.738546 0.0
31 1 1 152.826768 149.565349 0.0
32 1 1 151.604503 148.358575 0.0
33 1 1 152.796965 150.757262 0.0
34 1 1 152.002327 153.965526 0.0
35 1 1 152.918064 152.49918 0.0
36 1 1 152.313058 154.946644 0.0
37 1 1 153.088689 146.644979 0.0
38 1 1 153.361106 148.61433 0.0
39 1 1 153.568663 147.563129 0.0
40 1 1 154.373158 148.240376 0.0
41 1 1 153.825778 151.008486 0.0
42 1 1 153.037474 153.822681 0.0
43 1 1 154.877354 146.546561 0.0
44 1 1 155.337573 147.722304 0.0
45 1 1 155.068609 149.012145 0.0
46 1 1 154.068051 149.399245 0.0
47 1 1 155.18857 150.057941 0.0
48 1 1 146.660515 151.017041 0.0
49 1 1 155.256142 152.813583 0.0
50 1 1 155.075767 154.498283 0.0
51 1 1 146.753198 155.410868 0.0
52 1 1 147.539188 151.23088 0.0
53 1 1 155.183321 151.909327 0.0
54 1 1 146.558772 153.708708 0.0
55 1 1 147.493421 155.267037 0.0
56 1 1 147.788043 154.566911 0.0
57 1 1 146.98535 154.693938 0.0
58 1 1 147.275774 154.007393 0.0
59 1 1 147.37246 150.287342 0.0
60 1 1 148.249665 151.095384 0.0
61 1 1 148.240484 155.200751 0.0
62 1 1 150.034952 146.538402 0.0
63 1 1 149.451937 147.261036 0.0
64 1 1 148.960069 147.833573 0.0
65 1 1 148.895959 149.527545 0.0
66 1 1 149.266342 150.144316 0.0
67 1 1 149.739033 151.848622 0.0
68 1 1 150.02604 152.50104 0.0
69 1 1 149.826749 153.224885 0.0
70 1 1 149.381441 153.84779 0.0
71 1 1 150.031413 150.234702 0.0
72 1 1 151.45852 150.693895 0.0
73 1 1 151.81349 151.35997 0.0
74 1 1 149.622625 154.620226 0.0
75 1 1 150.351736 154.873664 0.0
76 1 1 152.055404 150.243389 0.0
77 1 1 151.139124 153.807228 0.0
78 1 1 151.612612 153.15971 0.0
79 1 1 150.782857 146.510717 0.0
80 1 1 151.529799 146.504576 0.0
81 1 1 152.451739 148.69713 0.0
82 1 1 153.450748 151.801624 0.0
83 1 1 152.52826 151.643133 0.0
84 1 1 152.358189 153.155583 0.0
85 1 1 153.291157 154.72742 0.0
86 1 1 152.211321 146.852735 0.0
87 1 1 153.979182 146.618858 0.0
88 1 1 154.301863 150.258273 0.0
89 1 1 153.530778 150.148929 0.0
90 1 1 153.810901 152.500308 0.0
91 1 1 153.840693 153.469429 0.0
92 1 1 154.477762 147.347542 0.0
93 1 1 146.881356 149.484041 0.0
94 1 1 154.760199 150.851325 0.0
95 1 1 154.515393 152.264073 0.0
96 1 1 154.538756 151.53819 0.0
97 1 1 154.378196 152.995191 0.0
98 1 1 154.796913 153.62436 0.0
99 1 1 154.209426 154.129066 0.0
100 1 1 154.205059 154.891107 0.0
 
Bonds
 
1 1 1 8
2 1 1 2
3 1 8 2
4 1 8 64
5 1 63 18
6 1 63 64
7 1 2 3
8 1 2 14
9 1 64 14
10 1 17 25
11 1 17 19
12 1 3 93
13 1 3 4
14 1 14 4
15 1 14 65
16 1 93 4
17 1 65 19
18 1 19 25
19 1 19 71
20 1 9 4
21 1 9 65
22 1 9 66
23 1 9 60
24 1 66 65
25 1 66 19
26 1 66 15
27 1 48 52
28 1 48 5
29 1 52 60
30 1 52 5
31 1 60 10
32 1 15 71
33 1 15 10
34 1 15 67
35 1 5 6
36 1 5 7
37 1 6 10
38 1 6 7
39 1 6 12
40 1 6 11
41 1 10 67
42 1 10 12
43 1 7 54
44 1 7 58
45 1 7 11
46 1 12 69
47 1 12 11
48 1 69 68
49 1 69 70
50 1 69 24
51 1 54 58
52 1 58 57
53 1 58 56
54 1 11 13
55 1 70 13
56 1 57 51
57 1 57 55
58 1 56 13
59 1 56 61
60 1 56 55
61 1 13 74
62 1 13 61
63 1 13 16
64 1 74 16
65 1 51 55
66 1 61 55
67 1 61 16
68 1 62 79
69 1 62 18
70 1 79 80
71 1 79 18
72 1 80 29
73 1 80 86
74 1 87 37
75 1 87 43
76 1 43 92
77 1 18 29
78 1 18 17
79 1 29 86
80 1 29 30
81 1 29 32
82 1 86 37
83 1 86 30
84 1 37 39
85 1 92 39
86 1 92 40
87 1 92 44
88 1 30 39
89 1 30 32
90 1 30 81
91 1 39 40
92 1 39 38
93 1 40 44
94 1 40 38
95 1 40 45
96 1 25 32
97 1 25 27
98 1 32 81
99 1 32 26
100 1 81 38
101 1 81 31
102 1 38 31
103 1 38 46
104 1 45 46
105 1 45 47
106 1 27 26
107 1 27 71
108 1 27 20
109 1 26 31
110 1 26 76
111 1 31 89
112 1 46 88
113 1 71 66
114 1 71 20
115 1 72 27
116 1 72 76
117 1 72 20
118 1 72 73
119 1 76 33
120 1 33 89
121 1 33 83
122 1 33 41
123 1 89 46
124 1 89 88
125 1 89 41
126 1 88 47
127 1 88 41
128 1 88 94
129 1 47 94
130 1 20 15
131 1 20 21
132 1 73 83
133 1 73 22
134 1 83 22
135 1 83 35
136 1 41 96
137 1 41 94
138 1 41 82
139 1 96 94
140 1 96 95
141 1 96 53
142 1 21 68
143 1 21 22
144 1 21 23
145 1 68 67
146 1 68 23
147 1 22 35
148 1 22 78
149 1 35 82
150 1 35 90
151 1 35 84
152 1 82 90
153 1 90 95
154 1 90 97
155 1 95 53
156 1 95 97
157 1 95 49
158 1 53 49
159 1 23 69
160 1 23 78
161 1 23 24
162 1 23 77
163 1 78 84
164 1 78 34
165 1 84 34
166 1 84 42
167 1 97 49
168 1 97 91
169 1 97 98
170 1 49 98
171 1 24 70
172 1 24 77
173 1 24 74
174 1 24 75
175 1 77 34
176 1 77 28
177 1 34 42
178 1 34 28
179 1 34 36
180 1 42 91
181 1 42 85
182 1 99 91
183 1 99 98
184 1 99 100
185 1 99 50
186 1 98 50
187 1 75 74
188 1 75 28
189 1 28 36
190 1 100 50
