# LAMMPS data file
100 atoms
191 bonds
1 atom types
1 bond types
-1.0000000000000000e+02 4.0000000000000000e+02 xlo xhi
-1.0000000000000000e+02 4.0000000000000000e+02 ylo yhi
-1.0000000000000000e+00 1.0000000000000000e+00 zlo zhi
 
Masses
 
1 0.0
 
Atoms
 
1 1 1 148.183444 154.739167 0.0
2 1 1 147.110728 147.830125 0.0
3 1 1 146.692051 149.841454 0.0
4 1 1 147.114643 150.8266 0.0
5 1 1 146.906458 152.323308 0.0
6 1 1 148.102198 147.472729 0.0
7 1 1 148.760329 148.705249 0.0
8 1 1 148.804403 150.554083 0.0
9 1 1 148.236861 152.133603 0.0
10 1 1 147.655658 153.045071 0.0
11 1 1 149.930482 149.090635 0.0
12 1 1 149.782792 150.164451 0.0
13 1 1 149.26592 152.406504 0.0
14 1 1 148.767538 153.866205 0.0
15 1 1 149.812184 147.03009 0.0
16 1 1 150.377196 147.945244 0.0
17 1 1 150.609334 150.850066 0.0
18 1 1 150.099217 151.779651 0.0
19 1 1 150.274741 152.838699 0.0
20 1 1 151.828381 149.896152 0.0
21 1 1 150.766802 149.791005 0.0
22 1 1 151.658403 151.03495 0.0
23 1 1 151.293685 153.178759 0.0
24 1 1 152.460323 146.79102 0.0
25 1 1 151.586645 147.389197 0.0
26 1 1 152.744698 147.800332 0.0
27 1 1 152.884484 149.59247 0.0
28 1 1 152.629438 150.614754 0.0
29 1 1 152.56457 151.697938 0.0
30 1 1 152.356258 153.4529 0.0
31 1 1 153.057717 152.67406 0.0
32 1 1 153.359383 155.221947 0.0
33 1 1 151.607182 154.209759 0.0
34 1 1 152.664514 154.456472 0.0
35 1 1 154.290332 146.751221 0.0
36 1 1 153.367292 148.638916 0.0
37 1 1 154.004898 147.775986 0.0
38 1 1 154.629048 149.767595 0.0
39 1 1 153.727875 150.36049 0.0
40 1 1 153.424729 153.705736 0.0
41 1 1 154.135466 152.90568 0.0
42 1 1 155.26805 154.244776 0.0
43 1 1 154.260901 154.648933 0.0
44 1 1 155.061803 147.572035 0.0
45 1 1 155.437997 148.622605 0.0
46 1 1 154.408716 148.751564 0.0
47 1 1 155.053804 150.723552 0.0
48 1 1 154.196311 151.3316 0.0
49 1 1 154.858732 152.134011 0.0
50 1 1 155.216346 153.166135 0.0
51 1 1 147.31397 146.953649 0.0
52 1 1 147.205477 149.090501 0.0
53 1 1 147.596965 149.750808 0.0
54 1 1 147.916234 150.427351 0.0
55 1 1 147.499364 151.633664 0.0
56 1 1 146.514595 151.510653 0.0
57 1 1 147.279395 154.459244 0.0
58 1 1 147.446238 155.229293 0.0
59 1 1 148.334028 146.600958 0.0
60 1 1 147.882273 148.358617 0.0
61 1 1 148.359644 149.750412 0.0
62 1 1 147.953707 149.099773 0.0
63 1 1 148.119722 151.184586 0.0
64 1 1 148.879554 151.472808 0.0
65 1 1 148.567469 152.9921 0.0
66 1 1 147.839567 153.914634 0.0
67 1 1 148.917822 147.057517 0.0
68 1 1 149.548453 148.261425 0.0
69 1 1 148.956707 147.805224 0.0
70 1 1 149.103773 149.55485 0.0
71 1 1 149.565568 151.05536 0.0
72 1 1 149.451479 153.286678 0.0
73 1 1 149.484528 154.413714 0.0
74 1 1 150.240304 154.506528 0.0
75 1 1 150.734665 147.096031 0.0
76 1 1 151.000334 151.699424 0.0
77 1 1 150.011643 153.773377 0.0
78 1 1 149.774729 155.108153 0.0
79 1 1 149.033909 155.288597 0.0
80 1 1 151.21742 148.226457 0.0
81 1 1 151.006447 148.93506 0.0
82 1 1 151.697812 151.956717 0.0
83 1 1 150.747124 153.934283 0.0
84 1 1 151.321763 155.488624 0.0
85 1 1 150.938978 154.808683 0.0
86 1 1 150.477582 155.390324 0.0
87 1 1 153.377929 147.125197 0.0
88 1 1 151.759666 148.971726 0.0
89 1 1 152.477775 148.759652 0.0
90 1 1 151.951091 148.232406 0.0
91 1 1 152.016887 152.611956 0.0
92 1 1 151.965597 155.042469 0.0
93 1 1 153.786442 149.438062 0.0
94 1 1 153.312891 151.179149 0.0
95 1 1 153.510783 151.908816 0.0
96 1 1 154.476561 153.755446 0.0
97 1 1 146.549182 146.775002 0.0
98 1 1 155.01541 155.200995 0.0
99 1 1 147.025028 153.718774 0.0
100 1 1 146.739591 155.025271 0.0
 
Bonds
 
1 1 59 6
2 1 59 67
3 1 97 51
4 1 51 6
5 1 51 2
6 1 67 6
7 1 67 15
8 1 67 69
9 1 15 75
10 1 2 6
11 1 2 60
12 1 6 69
13 1 6 60
14 1 69 68
15 1 69 7
16 1 68 7
17 1 68 11
18 1 52 62
19 1 52 3
20 1 52 53
21 1 60 62
22 1 60 7
23 1 62 7
24 1 62 53
25 1 62 61
26 1 7 70
27 1 11 70
28 1 11 21
29 1 3 53
30 1 53 61
31 1 70 61
32 1 61 8
33 1 4 3
34 1 4 54
35 1 4 56
36 1 4 55
37 1 54 53
38 1 54 8
39 1 54 63
40 1 8 12
41 1 8 63
42 1 8 64
43 1 8 71
44 1 12 11
45 1 12 70
46 1 12 71
47 1 56 5
48 1 55 63
49 1 55 5
50 1 55 9
51 1 63 9
52 1 64 9
53 1 71 18
54 1 5 10
55 1 9 13
56 1 9 10
57 1 9 65
58 1 13 65
59 1 13 72
60 1 13 19
61 1 10 65
62 1 10 99
63 1 10 66
64 1 65 14
65 1 72 19
66 1 72 14
67 1 99 57
68 1 66 14
69 1 66 57
70 1 66 1
71 1 14 1
72 1 14 73
73 1 100 57
74 1 100 58
75 1 57 1
76 1 57 58
77 1 1 58
78 1 73 78
79 1 79 78
80 1 78 86
81 1 75 25
82 1 75 16
83 1 25 24
84 1 25 80
85 1 25 90
86 1 24 26
87 1 87 26
88 1 87 37
89 1 35 37
90 1 16 15
91 1 16 68
92 1 16 80
93 1 80 90
94 1 80 81
95 1 90 26
96 1 90 89
97 1 90 88
98 1 26 36
99 1 37 44
100 1 37 36
101 1 37 46
102 1 44 45
103 1 81 88
104 1 81 21
105 1 89 88
106 1 89 36
107 1 89 27
108 1 88 20
109 1 36 46
110 1 36 27
111 1 36 93
112 1 46 45
113 1 46 93
114 1 46 38
115 1 21 20
116 1 21 12
117 1 20 27
118 1 20 28
119 1 27 93
120 1 93 38
121 1 28 27
122 1 28 22
123 1 28 94
124 1 28 29
125 1 39 93
126 1 39 38
127 1 39 94
128 1 39 48
129 1 47 38
130 1 47 48
131 1 17 21
132 1 17 12
133 1 17 22
134 1 17 18
135 1 17 76
136 1 22 76
137 1 22 82
138 1 94 48
139 1 94 29
140 1 94 95
141 1 48 95
142 1 48 49
143 1 18 13
144 1 18 76
145 1 18 19
146 1 76 82
147 1 82 29
148 1 82 91
149 1 29 31
150 1 95 31
151 1 49 41
152 1 49 50
153 1 19 23
154 1 23 91
155 1 23 83
156 1 23 30
157 1 23 33
158 1 91 30
159 1 31 41
160 1 31 30
161 1 31 40
162 1 41 50
163 1 41 40
164 1 41 96
165 1 50 96
166 1 50 42
167 1 83 77
168 1 83 74
169 1 83 33
170 1 77 72
171 1 77 74
172 1 33 30
173 1 33 85
174 1 33 34
175 1 33 92
176 1 30 40
177 1 30 34
178 1 40 34
179 1 96 43
180 1 96 42
181 1 74 73
182 1 74 85
183 1 74 78
184 1 85 86
185 1 85 84
186 1 92 34
187 1 92 84
188 1 34 32
189 1 43 42
190 1 43 32
191 1 43 98
